created by fftool

5032 atoms
4050 bonds
6900 angles
9600 dihedrals
15 atom types
10 bond types
14 angle types
23 dihedral types
   -15.750970182    16.036605587 xlo xhi
   -16.275814455    17.531115324 ylo yhi
   -33.383603858    33.383603858 zlo zhi
   
Masses

   1   14.007  # NA
   2   12.011  # CR
   3   12.011  # CW
   4   12.011  # C1
   5    1.008  # HCR
   6    1.008  # HCW
   7    1.008  # H1
   8   12.011  # C2
   9   12.011  # CS
  10    1.008  # HC
  11   12.011  # CT
  12   32.066  # SK
  13   12.011  # CK
  14   14.001  # NK
  15   12.011  #CG
  
Bond Coeffs

   1   477.055449     1.315000  # CR-NA
   2   427.103250     1.378000  # CW-NA
   3   520.076482     1.341000  # CW-CW
   4   336.998088     1.466000  # NA-CT
   5   339.985660     1.080000  # CR-HA
   6   339.985660     1.080000  # CW-HA
   7   339.985660     1.090000  # HC-CT
   8   267.925430     1.529000  # CT-CT
   9   339.005736     1.670000  # SK-CK
  10  1460.504302     1.190000  # CK-NK

Angle Coeffs

   1    70.004780   126.400000  # CR-NA-CT
   2    70.004780   108.000000  # CW-NA-CR
   3    70.004780   125.600000  # CW-NA-CT
   4    70.004780   109.800000  # NA-CR-NA
   5    35.002390   125.100000  # NA-CR-HA
   6    70.004780   107.100000  # NA-CW-CW
   7    35.002390   122.000000  # NA-CW-HA
   8    35.002390   130.900000  # CW-CW-HA
   9    37.500000   110.700000  # NA-CT-HC
  10    32.994742   107.800000  # HC-CT-HC
  11    58.353250   112.700000  # NA-CT-CT
  12    37.500000   110.700000  # CT-CT-HC
  13    58.353250   112.700000  # CT-CT-CT
  14    77.903920   180.000000  # SK-CK-NK

Dihedral Coeffs

   1     0.000000     4.651052     0.000000     0.000000  # CT-NA-CR-NA
   2     0.000000     4.651052     0.000000     0.000000  # CW-NA-CR-NA
   3     0.000000     4.651052     0.000000     0.000000  # CT-NA-CR-HA
   4     0.000000     4.651052     0.000000     0.000000  # CW-NA-CR-HA
   5     0.000000     3.000000     0.000000     0.000000  # CR-NA-CW-CW
   6     0.000000     3.000000     0.000000     0.000000  # CT-NA-CW-CW
   7     0.000000     3.000000     0.000000     0.000000  # CR-NA-CW-HA
   8     0.000000     3.000000     0.000000     0.000000  # CT-NA-CW-HA
   9     0.000000    10.750478     0.000000     0.000000  # NA-CW-CW-HA
  10     0.000000    10.750478     0.000000     0.000000  # HA-CW-CW-HA
  11     0.000000    10.750478     0.000000     0.000000  # NA-CW-CW-NA
  12     0.000000     0.000000     0.000000     0.000000  # CR-NA-CT-HC
  13     0.000000     0.000000     0.124044     0.000000  # CW-NA-CT-HC
  14    -1.259345     0.000000     0.000000     0.000000  # CR-NA-CT-CT
  15    -1.709728     1.459465     0.189747     0.000000  # CW-NA-CT-CT
  16    -1.787691     0.756262    -0.287428     0.000000  # NA-CT-CT-CT
  17     0.000000     0.000000     0.300000     0.000000  # CT-CT-CT-HC
  18     0.000000     0.000000     0.087715     0.000000  # NA-CT-CT-HC
  19     0.000000     0.000000     0.300000     0.000000  # HC-CT-CT-HC
  20     1.300000    -0.050000     0.200000     0.000000  # CT-CT-CT-CT
  21     0.000000     2.000000     0.000000     0.000000  # CR-CW-NA-CT
  22     0.000000     2.200000     0.000000     0.000000  # NA-NA-CR-HA
  23     0.000000     2.200000     0.000000     0.000000  # NA-CW-CW-HA

Atoms

      1       1    1   0.150000 -8.791366e+00 -3.813577e+00 -9.343856e+00  # NA c4c1im+
      2       1    2  -0.110000 -9.826714e+00 -3.002875e+00 -9.350172e+00  # CR c4c1im+
      3       1    1   0.150000 -9.669122e+00 -2.086332e+00 -1.027987e+01  # NA c4c1im+
      4       1    3  -0.130000 -8.464862e+00 -2.319405e+00 -1.090782e+01  # CW c4c1im+
      5       1    3  -0.130000 -7.917827e+00 -3.395856e+00 -1.032447e+01  # CW c4c1im+
      6       1    4  -0.170000 -8.590870e+00 -4.962182e+00 -8.455224e+00  # C1 c4c1im+
      7       1    5   0.210000 -1.067867e+01 -3.078462e+00 -8.690729e+00  # HCR c4c1im+
      8       1    4  -0.170000 -1.060477e+01 -1.003731e+00 -1.059877e+01  # C1 c4c1im+
      9       1    6   0.210000 -8.041321e+00 -1.743537e+00 -1.171738e+01  # HCW c4c1im+
     10       1    6   0.210000 -6.970790e+00 -3.850123e+00 -1.057579e+01  # HCW c4c1im+
     11       1    7   0.130000 -7.681264e+00 -4.816931e+00 -7.872455e+00  # H1 c4c1im+
     12       1    7   0.130000 -9.442704e+00 -5.053945e+00 -7.781386e+00  # H1 c4c1im+
     13       1    7   0.130000 -8.499356e+00 -5.870893e+00 -9.050177e+00  # H1 c4c1im+
     14       1    8   0.010000 -1.182056e+01 -1.091451e+00 -9.675729e+00  # C2 c4c1im+
     15       1    7   0.130000 -1.011070e+01 -4.244500e-02 -1.045764e+01  # H1 c4c1im+
     16       1    7   0.130000 -1.092879e+01 -1.096406e+00 -1.163536e+01  # H1 c4c1im+
     17       1    9  -0.120000 -1.279642e+01  3.767200e-02 -1.000833e+01  # CS c4c1im+
     18       1   10   0.060000 -1.231574e+01 -2.052211e+00 -9.816560e+00  # HC c4c1im+
     19       1   10   0.060000 -1.149765e+01 -9.982490e-01 -8.638838e+00  # HC c4c1im+
     20       1   11  -0.180000 -1.401221e+01 -5.004700e-02 -9.085292e+00  # CT c4c1im+
     21       1   10   0.060000 -1.312044e+01 -5.500200e-02 -1.104492e+01  # HC c4c1im+
     22       1   10   0.060000 -1.230234e+01  9.989590e-01 -9.867201e+00  # HC c4c1im+
     23       1   10   0.060000 -1.470788e+01  7.548870e-01 -9.322399e+00  # HC c4c1im+
     24       1   10   0.060000 -1.368930e+01  4.315400e-02 -8.048401e+00  # HC c4c1im+
     25       1   10   0.060000 -1.450739e+01 -1.010807e+00 -9.226123e+00  # HC c4c1im+
     26       2    1   0.150000  1.327406e+01 -1.305584e+01  2.917499e+01  # NA c4c1im+
     27       2    2  -0.110000  1.198344e+01 -1.323051e+01  2.899326e+01  # CR c4c1im+
     28       2    1   0.150000  1.134917e+01 -1.209422e+01  2.918241e+01  # NA c4c1im+
     29       2    3  -0.130000  1.228327e+01 -1.113354e+01  2.950402e+01  # CW c4c1im+
     30       2    3  -0.130000  1.348290e+01 -1.173284e+01  2.949939e+01  # CW c4c1im+
     31       2    4  -0.170000  1.431610e+01 -1.408014e+01  2.905620e+01  # C1 c4c1im+
     32       2    5   0.210000  1.151471e+01 -1.416674e+01  2.872840e+01  # HCR c4c1im+
     33       2    4  -0.170000  9.903278e+00 -1.187863e+01  2.907253e+01  # C1 c4c1im+
     34       2    6   0.210000  1.208631e+01 -1.009370e+01  2.971928e+01  # HCW c4c1im+
     35       2    6   0.210000  1.443394e+01 -1.126651e+01  2.971023e+01  # HCW c4c1im+
     36       2    7   0.130000  1.483705e+01 -1.418133e+01  3.000829e+01  # H1 c4c1im+
     37       2    7   0.130000  1.386036e+01 -1.503351e+01  2.878886e+01  # H1 c4c1im+
     38       2    7   0.130000  1.502678e+01 -1.378823e+01  2.828300e+01  # H1 c4c1im+
     39       2    8   0.010000  9.218268e+00 -1.319320e+01  2.869768e+01  # C2 c4c1im+
     40       2    7   0.130000  9.514293e+00 -1.152635e+01  3.002788e+01  # H1 c4c1im+
     41       2    7   0.130000  9.704021e+00 -1.113325e+01  2.830259e+01  # H1 c4c1im+
     42       2    9  -0.120000  7.710241e+00 -1.296835e+01  2.858308e+01  # CS c4c1im+
     43       2   10   0.060000  9.606144e+00 -1.354603e+01  2.774208e+01  # HC c4c1im+
     44       2   10   0.060000  9.416416e+00 -1.393913e+01  2.946737e+01  # HC c4c1im+
     45       2   11  -0.180000  7.025231e+00 -1.428291e+01  2.820823e+01  # CT c4c1im+
     46       2   10   0.060000  7.510983e+00 -1.222297e+01  2.781314e+01  # HC c4c1im+
     47       2   10   0.060000  7.321255e+00 -1.261607e+01  2.953842e+01  # HC c4c1im+
     48       2   10   0.060000  5.950182e+00 -1.412262e+01  2.812653e+01  # HC c4c1im+
     49       2   10   0.060000  7.223379e+00 -1.502885e+01  2.897792e+01  # HC c4c1im+
     50       2   10   0.060000  7.413106e+00 -1.463575e+01  2.725263e+01  # HC c4c1im+
     51       3    1   0.150000 -3.015173e+00 -6.195528e+00 -1.275446e+01  # NA c4c1im+
     52       3    2  -0.110000 -2.078034e+00 -5.851753e+00 -1.189841e+01  # CR c4c1im+
     53       3    1   0.150000 -1.222498e+00 -6.839885e+00 -1.175392e+01  # NA c4c1im+
     54       3    3  -0.130000 -1.631143e+00 -7.878551e+00 -1.256204e+01  # CW c4c1im+
     55       3    3  -0.130000 -2.748371e+00 -7.476976e+00 -1.318560e+01  # CW c4c1im+
     56       3    4  -0.170000 -4.148441e+00 -5.369785e+00 -1.318225e+01  # C1 c4c1im+
     57       3    5   0.210000 -2.019755e+00 -4.900556e+00 -1.139025e+01  # HCR c4c1im+
     58       3    4  -0.170000 -3.969000e-02 -6.844135e+00 -1.088784e+01  # C1 c4c1im+
     59       3    6   0.210000 -1.143442e+00 -8.835819e+00 -1.267244e+01  # HCW c4c1im+
     60       3    6   0.210000 -3.329828e+00 -8.049947e+00 -1.389271e+01  # HCW c4c1im+
     61       3    7   0.130000 -5.081502e+00 -5.871675e+00 -1.292612e+01  # H1 c4c1im+
     62       3    7   0.130000 -4.105707e+00 -4.404154e+00 -1.267844e+01  # H1 c4c1im+
     63       3    7   0.130000 -4.101918e+00 -5.218698e+00 -1.426073e+01  # H1 c4c1im+
     64       3    8   0.010000  6.281500e-02 -5.504846e+00 -1.015733e+01  # C2 c4c1im+
     65       3    7   0.130000 -1.256740e-01 -7.649585e+00 -1.015848e+01  # H1 c4c1im+
     66       3    7   0.130000  8.539090e-01 -6.996607e+00 -1.149309e+01  # H1 c4c1im+
     67       3    9  -0.120000  1.296453e+00 -5.509278e+00 -9.254024e+00  # CS c4c1im+
     68       3   10   0.060000  1.494760e-01 -4.698720e+00 -1.088586e+01  # HC c4c1im+
     69       3   10   0.060000 -8.301080e-01 -5.351698e+00 -9.551249e+00  # HC c4c1im+
     70       3   11  -0.180000  1.398958e+00 -4.169989e+00 -8.523518e+00  # CT c4c1im+
     71       3   10   0.060000  2.190052e+00 -5.661751e+00 -9.859278e+00  # HC c4c1im+
     72       3   10   0.060000  1.210469e+00 -6.314729e+00 -8.524671e+00  # HC c4c1im+
     73       3   10   0.060000  2.278399e+00 -4.173149e+00 -7.879567e+00  # HC c4c1im+
     74       3   10   0.060000  5.060350e-01 -4.016841e+00 -7.917438e+00  # HC c4c1im+
     75       3   10   0.060000  1.485618e+00 -3.363863e+00 -9.252045e+00  # HC c4c1im+
     76       4    1   0.150000  4.794173e+00  1.084879e+01  2.076000e+01  # NA c4c1im+
     77       4    2  -0.110000  4.780397e+00  9.665904e+00  2.018570e+01  # CR c4c1im+
     78       4    1   0.150000  3.574293e+00  9.147569e+00  2.026230e+01  # NA c4c1im+
     79       4    3  -0.130000  2.765566e+00  1.004670e+01  2.092291e+01  # CW c4c1im+
     80       4    3  -0.130000  3.525818e+00  1.110693e+01  2.123309e+01  # CW c4c1im+
     81       4    4  -0.170000  5.948891e+00  1.174378e+01  2.088153e+01  # C1 c4c1im+
     82       4    5   0.210000  5.631911e+00  9.191309e+00  1.972085e+01  # HCR c4c1im+
     83       4    4  -0.170000  3.155255e+00  7.843570e+00  1.973966e+01  # C1 c4c1im+
     84       4    6   0.210000  1.716859e+00  9.921145e+00  2.114841e+01  # HCW c4c1im+
     85       4    6   0.210000  3.204651e+00  1.199599e+01  2.175542e+01  # HCW c4c1im+
     86       4    7   0.130000  6.156038e+00  1.192940e+01  2.193544e+01  # H1 c4c1im+
     87       4    7   0.130000  6.819094e+00  1.128012e+01  2.041691e+01  # H1 c4c1im+
     88       4    7   0.130000  5.731318e+00  1.268821e+01  2.038272e+01  # H1 c4c1im+
     89       4    8   0.010000  4.347014e+00  7.152763e+00  1.907608e+01  # C2 c4c1im+
     90       4    7   0.130000  2.786820e+00  7.224935e+00  2.055797e+01  # H1 c4c1im+
     91       4    7   0.130000  2.362100e+00  7.983746e+00  1.900525e+01  # H1 c4c1im+
     92       4    9  -0.120000  3.909969e+00  5.792726e+00  1.853098e+01  # CS c4c1im+
     93       4   10   0.060000  4.715832e+00  7.770360e+00  1.825715e+01  # HC c4c1im+
     94       4   10   0.060000  5.140552e+00  7.011549e+00  1.980987e+01  # HC c4c1im+
     95       4   11  -0.180000  5.101728e+00  5.101919e+00  1.786740e+01  # CT c4c1im+
     96       4   10   0.060000  3.116813e+00  5.932902e+00  1.779657e+01  # HC c4c1im+
     97       4   10   0.060000  3.541533e+00  5.174091e+00  1.934930e+01  # HC c4c1im+
     98       4   10   0.060000  4.790165e+00  4.132370e+00  1.747881e+01  # HC c4c1im+
     99       4   10   0.060000  5.895266e+00  4.960705e+00  1.860120e+01  # HC c4c1im+
    100       4   10   0.060000  5.470546e+00  5.719516e+00  1.704847e+01  # HC c4c1im+
    101       5    1   0.150000  9.301876e+00  1.127614e+01  1.128270e+01  # NA c4c1im+
    102       5    2  -0.110000  8.541732e+00  1.190108e+01  1.041042e+01  # CR c4c1im+
    103       5    1   0.150000  7.356292e+00  1.212615e+01  1.093320e+01  # NA c4c1im+
    104       5    3  -0.130000  7.352254e+00  1.161783e+01  1.221401e+01  # CW c4c1im+
    105       5    3  -0.130000  8.564778e+00  1.108809e+01  1.243183e+01  # CW c4c1im+
    106       5    4  -0.170000  1.068975e+01  1.084981e+01  1.107973e+01  # C1 c4c1im+
    107       5    5   0.210000  8.845462e+00  1.218664e+01  9.414127e+00  # HCR c4c1im+
    108       5    4  -0.170000  6.231481e+00  1.279866e+01  1.027617e+01  # C1 c4c1im+
    109       5    6   0.210000  6.527764e+00  1.164161e+01  1.291119e+01  # HCW c4c1im+
    110       5    6   0.210000  8.900641e+00  1.060492e+01  1.333744e+01  # HCW c4c1im+
    111       5    7   0.130000  1.075842e+01  9.767959e+00  1.119369e+01  # H1 c4c1im+
    112       5    7   0.130000  1.101369e+01  1.113035e+01  1.007750e+01  # H1 c4c1im+
    113       5    7   0.130000  1.133052e+01  1.133368e+01  1.181687e+01  # H1 c4c1im+
    114       5    8   0.010000  6.639716e+00  1.321238e+01  8.861949e+00  # C2 c4c1im+
    115       5    7   0.130000  5.381166e+00  1.211870e+01  1.022406e+01  # H1 c4c1im+
    116       5    7   0.130000  5.953266e+00  1.368442e+01  1.084725e+01  # H1 c4c1im+
    117       5    9  -0.120000  5.466568e+00  1.391379e+01  8.176682e+00  # CS c4c1im+
    118       5   10   0.060000  7.489644e+00  1.389291e+01  8.912998e+00  # HC c4c1im+
    119       5   10   0.060000  6.917543e+00  1.232719e+01  8.289809e+00  # HC c4c1im+
    120       5   11  -0.180000  5.874803e+00  1.432751e+01  6.762462e+00  # CT c4c1im+
    121       5   10   0.060000  5.188353e+00  1.479955e+01  8.747760e+00  # HC c4c1im+
    122       5   10   0.060000  4.616252e+00  1.323383e+01  8.124571e+00  # HC c4c1im+
    123       5   10   0.060000  5.038484e+00  1.482754e+01  6.273946e+00  # HC c4c1im+
    124       5   10   0.060000  6.152631e+00  1.344232e+01  6.190322e+00  # HC c4c1im+
    125       5   10   0.060000  6.724732e+00  1.500804e+01  6.813511e+00  # HC c4c1im+
    126       6    1   0.150000  8.145180e-01  6.725618e+00 -8.638990e+00  # NA c4c1im+
    127       6    2  -0.110000  7.433920e-01  7.187201e+00 -9.868261e+00  # CR c4c1im+
    128       6    1   0.150000 -5.140600e-01  7.387378e+00 -1.019684e+01  # NA c4c1im+
    129       6    3  -0.130000 -1.297092e+00  7.035096e+00 -9.119050e+00  # CW c4c1im+
    130       6    3  -0.130000 -4.690980e-01  6.622675e+00 -8.148166e+00  # CW c4c1im+
    131       6    4  -0.170000  2.037628e+00  6.378366e+00 -7.909214e+00  # C1 c4c1im+
    132       6    5   0.210000  1.590621e+00  7.373888e+00 -1.051150e+01  # HCR c4c1im+
    133       6    4  -0.170000 -1.005143e+00  7.895520e+00 -1.148128e+01  # C1 c4c1im+
    134       6    6   0.210000 -2.374766e+00  7.082268e+00 -9.066202e+00  # HCW c4c1im+
    135       6    6   0.210000 -7.544030e-01  6.275171e+00 -7.166208e+00  # HCW c4c1im+
    136       6    7   0.130000  2.007922e+00  5.325254e+00 -7.629618e+00  # H1 c4c1im+
    137       6    7   0.130000  2.904481e+00  6.560817e+00 -8.544335e+00  # H1 c4c1im+
    138       6    7   0.130000  2.111182e+00  6.990469e+00 -7.010316e+00  # H1 c4c1im+
    139       6    8   0.010000  1.793360e-01  8.167173e+00 -1.240922e+01  # C2 c4c1im+
    140       6    7   0.130000 -1.661795e+00  7.155259e+00 -1.193836e+01  # H1 c4c1im+
    141       6    7   0.130000 -1.558535e+00  8.820474e+00 -1.131906e+01  # H1 c4c1im+
    142       6    9  -0.120000 -3.328500e-01  8.697152e+00 -1.374885e+01  # CS c4c1im+
    143       6   10   0.060000  8.363290e-01  8.907840e+00 -1.195328e+01  # HC c4c1im+
    144       6   10   0.060000  7.330690e-01  7.242625e+00 -1.257259e+01  # HC c4c1im+
    145       6   11  -0.180000  8.516290e-01  8.968805e+00 -1.467678e+01  # CT c4c1im+
    146       6   10   0.060000 -8.862420e-01  9.622106e+00 -1.358663e+01  # HC c4c1im+
    147       6   10   0.060000 -9.895020e-01  7.956891e+00 -1.420593e+01  # HC c4c1im+
    148       6   10   0.060000  4.865000e-01  9.346619e+00 -1.563179e+01  # HC c4c1im+
    149       6   10   0.060000  1.405362e+00  8.044257e+00 -1.484015e+01  # HC c4c1im+
    150       6   10   0.060000  1.508622e+00  9.709472e+00 -1.422085e+01  # HC c4c1im+
    151       7    1   0.150000  1.167052e+01 -6.733415e+00  9.942993e+00  # NA c4c1im+
    152       7    2  -0.110000  1.050531e+01 -6.513629e+00  1.051150e+01  # CR c4c1im+
    153       7    1   0.150000  1.018262e+01 -7.534429e+00  1.127508e+01  # NA c4c1im+
    154       7    3  -0.130000  1.119658e+01 -8.464060e+00  1.119414e+01  # CW c4c1im+
    155       7    3  -0.130000  1.212387e+01 -7.964854e+00  1.036396e+01  # CW c4c1im+
    156       7    4  -0.170000  1.237298e+01 -5.834517e+00  9.022292e+00  # C1 c4c1im+
    157       7    5   0.210000  9.903619e+00 -5.627651e+00  1.037218e+01  # HCR c4c1im+
    158       7    4  -0.170000  8.961330e+00 -7.668073e+00  1.207493e+01  # C1 c4c1im+
    159       7    6   0.210000  1.123687e+01 -9.415583e+00  1.170344e+01  # HCW c4c1im+
    160       7    6   0.210000  1.305155e+01 -8.438649e+00  1.007879e+01  # HCW c4c1im+
    161       7    7   0.130000  1.252224e+01 -6.336754e+00  8.066478e+00  # H1 c4c1im+
    162       7    7   0.130000  1.177916e+01 -4.933292e+00  8.869763e+00  # H1 c4c1im+
    163       7    7   0.130000  1.334059e+01 -5.564205e+00  9.445104e+00  # H1 c4c1im+
    164       7    8   0.010000  8.092987e+00 -6.422853e+00  1.189259e+01  # C2 c4c1im+
    165       7    7   0.130000  8.406998e+00 -8.547950e+00  1.174839e+01  # H1 c4c1im+
    166       7    7   0.130000  9.225349e+00 -7.775400e+00  1.312701e+01  # H1 c4c1im+
    167       7    9  -0.120000  6.819216e+00 -6.562240e+00  1.272680e+01  # CS c4c1im+
    168       7   10   0.060000  8.646234e+00 -5.542416e+00  1.221946e+01  # HC c4c1im+
    169       7   10   0.060000  7.827883e+00 -6.314965e+00  1.084084e+01  # HC c4c1im+
    170       7   11  -0.180000  5.950873e+00 -5.317020e+00  1.254446e+01  # CT c4c1im+
    171       7   10   0.060000  7.083236e+00 -6.669568e+00  1.377889e+01  # HC c4c1im+
    172       7   10   0.060000  6.264885e+00 -7.442118e+00  1.240026e+01  # HC c4c1im+
    173       7   10   0.060000  5.042823e+00 -5.416387e+00  1.313916e+01  # HC c4c1im+
    174       7   10   0.060000  5.685770e+00 -5.209132e+00  1.149271e+01  # HC c4c1im+
    175       7   10   0.060000  6.504121e+00 -4.436583e+00  1.287134e+01  # HC c4c1im+
    176       8    1   0.150000 -4.095065e+00  1.176910e+01 -3.051690e+00  # NA c4c1im+
    177       8    2  -0.110000 -4.984967e+00  1.119074e+01 -3.828088e+00  # CR c4c1im+
    178       8    1   0.150000 -4.405404e+00  1.025892e+01 -4.552686e+00  # NA c4c1im+
    179       8    3  -0.130000 -3.067157e+00  1.023546e+01 -4.224924e+00  # CW c4c1im+
    180       8    3  -0.130000 -2.873748e+00  1.117663e+01 -3.289476e+00  # CW c4c1im+
    181       8    4  -0.170000 -4.346205e+00  1.285356e+01 -2.097732e+00  # C1 c4c1im+
    182       8    5   0.210000 -6.034403e+00  1.144316e+01 -3.865081e+00  # HCR c4c1im+
    183       8    4  -0.170000 -5.060159e+00  9.393042e+00 -5.537934e+00  # C1 c4c1im+
    184       8    6   0.210000 -2.315561e+00  9.582076e+00 -4.642767e+00  # HCW c4c1im+
    185       8    6   0.210000 -1.937065e+00  1.142393e+01 -2.812120e+00  # HCW c4c1im+
    186       8    7   0.130000 -3.745130e+00  1.372191e+01 -2.367489e+00  # H1 c4c1im+
    187       8    7   0.130000 -5.402408e+00  1.312182e+01 -2.121602e+00  # H1 c4c1im+
    188       8    7   0.130000 -4.078069e+00  1.252440e+01 -1.093810e+00  # H1 c4c1im+
    189       8    8   0.010000 -6.549167e+00  9.733509e+00 -5.607053e+00  # C2 c4c1im+
    190       8    7   0.130000 -4.606701e+00  9.548086e+00 -6.516932e+00  # H1 c4c1im+
    191       8    7   0.130000 -4.939640e+00  8.350574e+00 -5.243253e+00  # H1 c4c1im+
    192       8    9  -0.120000 -7.232059e+00  8.830424e+00 -6.634640e+00  # CS c4c1im+
    193       8   10   0.060000 -7.003724e+00  9.578180e+00 -4.628610e+00  # HC c4c1im+
    194       8   10   0.060000 -6.670785e+00  1.077569e+01 -5.902289e+00  # HC c4c1im+
    195       8   11  -0.180000 -8.721068e+00  9.170890e+00 -6.703760e+00  # CT c4c1im+
    196       8   10   0.060000 -7.111541e+00  7.787956e+00 -6.339960e+00  # HC c4c1im+
    197       8   10   0.060000 -6.778602e+00  8.985467e+00 -7.613639e+00  # HC c4c1im+
    198       8   10   0.060000 -9.207891e+00  8.527095e+00 -7.436311e+00  # HC c4c1im+
    199       8   10   0.060000 -8.842686e+00  1.021307e+01 -6.998996e+00  # HC c4c1im+
    200       8   10   0.060000 -9.175625e+00  9.015562e+00 -5.725317e+00  # HC c4c1im+
    201       9    1   0.150000 -6.391119e+00 -8.868271e+00  2.921058e+01  # NA c4c1im+
    202       9    2  -0.110000 -7.597792e+00 -8.372626e+00  2.904474e+01  # CR c4c1im+
    203       9    1   0.150000 -7.574941e+00 -7.071624e+00  2.923473e+01  # NA c4c1im+
    204       9    3  -0.130000 -6.281184e+00 -6.708531e+00  2.954008e+01  # CW c4c1im+
    205       9    3  -0.130000 -5.543404e+00 -7.828235e+00  2.952503e+01  # CW c4c1im+
    206       9    4  -0.170000 -6.004101e+00 -1.027673e+01  2.908561e+01  # C1 c4c1im+
    207       9    5   0.210000 -8.475870e+00 -8.947782e+00  2.879063e+01  # HCR c4c1im+
    208       9    4  -0.170000 -8.719535e+00 -6.160501e+00  2.914030e+01  # C1 c4c1im+
    209       9    6   0.210000 -5.927897e+00 -5.710127e+00  2.975169e+01  # HCW c4c1im+
    210       9    6   0.210000 -4.484082e+00 -7.901357e+00  2.972224e+01  # HCW c4c1im+
    211       9    7   0.130000 -5.591792e+00 -1.062614e+01  3.003219e+01  # H1 c4c1im+
    212       9    7   0.130000 -6.879556e+00 -1.087323e+01  2.882896e+01  # H1 c4c1im+
    213       9    7   0.130000 -5.252792e+00 -1.037952e+01  2.830262e+01  # H1 c4c1im+
    214       9    8   0.010000 -9.975726e+00 -6.954618e+00  2.878085e+01  # C2 c4c1im+
    215       9    7   0.130000 -8.867394e+00 -5.661552e+00  3.009805e+01  # H1 c4c1im+
    216       9    7   0.130000 -8.528394e+00 -5.414937e+00  2.836849e+01  # H1 c4c1im+
    217       9    9  -0.120000 -1.116951e+01 -6.004342e+00  2.868237e+01  # CS c4c1im+
    218       9   10   0.060000 -9.829107e+00 -7.453489e+00  2.782287e+01  # HC c4c1im+
    219       9   10   0.060000 -1.016811e+01 -7.700104e+00  2.955244e+01  # HC c4c1im+
    220       9   11  -0.180000 -1.242570e+01 -6.798460e+00  2.832292e+01  # CT c4c1im+
    221       9   10   0.060000 -1.097837e+01 -5.258777e+00  2.791055e+01  # HC c4c1im+
    222       9   10   0.060000 -1.131737e+01 -5.505393e+00  2.964012e+01  # HC c4c1im+
    223       9   10   0.060000 -1.327673e+01 -6.121022e+00  2.825271e+01  # HC c4c1im+
    224       9   10   0.060000 -1.261808e+01 -7.543945e+00  2.909450e+01  # HC c4c1im+
    225       9   10   0.060000 -1.227908e+01 -7.297330e+00  2.736493e+01  # HC c4c1im+
    226      10    1   0.150000  1.078810e+01  1.408280e+01  2.799383e+01  # NA c4c1im+
    227      10    2  -0.110000  9.492183e+00  1.407035e+01  2.821671e+01  # CR c4c1im+
    228      10    1   0.150000  8.843681e+00  1.404855e+01  2.707295e+01  # NA c4c1im+
    229      10    3  -0.130000  9.773683e+00  1.404686e+01  2.605610e+01  # CW c4c1im+
    230      10    3  -0.130000  1.098548e+01  1.406821e+01  2.663001e+01  # CW c4c1im+
    231      10    4  -0.170000  1.184550e+01  1.410781e+01  2.900893e+01  # C1 c4c1im+
    232      10    5   0.210000  9.029825e+00  1.407702e+01  2.919271e+01  # HCR c4c1im+
    233      10    4  -0.170000  7.387941e+00  1.402932e+01  2.690087e+01  # C1 c4c1im+
    234      10    6   0.210000  9.565763e+00  1.403128e+01  2.499642e+01  # HCW c4c1im+
    235      10    6   0.210000  1.193722e+01  1.407306e+01  2.611955e+01  # HCW c4c1im+
    236      10    7   0.130000  1.245328e+01  1.500329e+01  2.887924e+01  # H1 c4c1im+
    237      10    7   0.130000  1.139637e+01  1.411485e+01  3.000207e+01  # H1 c4c1im+
    238      10    7   0.130000  1.247417e+01  1.322390e+01  2.890130e+01  # H1 c4c1im+
    239      10    8   0.010000  6.711741e+00  1.403838e+01  2.827219e+01  # C2 c4c1im+
    240      10    7   0.130000  7.076564e+00  1.490863e+01  2.633699e+01  # H1 c4c1im+
    241      10    7   0.130000  7.097461e+00  1.312924e+01  2.635905e+01  # H1 c4c1im+
    242      10    9  -0.120000  5.193443e+00  1.401833e+01  2.809273e+01  # CS c4c1im+
    243      10   10   0.060000  7.022007e+00  1.315907e+01  2.883668e+01  # HC c4c1im+
    244      10   10   0.060000  7.001111e+00  1.493846e+01  2.881462e+01  # HC c4c1im+
    245      10   11  -0.180000  4.517243e+00  1.402739e+01  2.946405e+01  # CT c4c1im+
    246      10   10   0.060000  4.902963e+00  1.311825e+01  2.755091e+01  # HC c4c1im+
    247      10   10   0.060000  4.882066e+00  1.489763e+01  2.752884e+01  # HC c4c1im+
    248      10   10   0.060000  3.434872e+00  1.401309e+01  2.933611e+01  # HC c4c1im+
    249      10   10   0.060000  4.806613e+00  1.492747e+01  3.000647e+01  # HC c4c1im+
    250      10   10   0.060000  4.827509e+00  1.314808e+01  3.002854e+01  # HC c4c1im+
    251      11    1   0.150000  9.631870e-01 -9.283275e+00 -2.343659e+01  # NA c4c1im+
    252      11    2  -0.110000  1.686878e+00 -8.214721e+00 -2.368896e+01  # CR c4c1im+
    253      11    1   0.150000  8.998800e-01 -7.202544e+00 -2.398111e+01  # NA c4c1im+
    254      11    3  -0.130000 -4.039100e-01 -7.643461e+00 -2.391323e+01  # CW c4c1im+
    255      11    3  -0.130000 -3.644560e-01 -8.940211e+00 -2.357387e+01  # CW c4c1im+
    256      11    4  -0.170000  1.468432e+00 -1.061043e+01 -2.307251e+01  # C1 c4c1im+
    257      11    5   0.210000  2.765753e+00 -8.174459e+00 -2.366054e+01  # HCR c4c1im+
    258      11    4  -0.170000  1.326108e+00 -5.841532e+00 -2.432042e+01  # C1 c4c1im+
    259      11    6   0.210000 -1.290609e+00 -7.055370e+00 -2.409847e+01  # HCW c4c1im+
    260      11    6   0.210000 -1.213398e+00 -9.593075e+00 -2.343435e+01  # HCW c4c1im+
    261      11    7   0.130000  1.142933e+00 -1.133975e+01 -2.381429e+01  # H1 c4c1im+
    262      11    7   0.130000  2.557694e+00 -1.058846e+01 -2.303895e+01  # H1 c4c1im+
    263      11    7   0.130000  1.080862e+00 -1.089124e+01 -2.209321e+01  # H1 c4c1im+
    264      11    8   0.010000  2.852621e+00 -5.761314e+00 -2.428628e+01  # C2 c4c1im+
    265      11    7   0.130000  9.717100e-01 -5.587695e+00 -2.531946e+01  # H1 c4c1im+
    266      11    7   0.130000  9.096390e-01 -5.139178e+00 -2.359838e+01  # H1 c4c1im+
    267      11    9  -0.120000  3.297166e+00 -4.341814e+00 -2.464017e+01  # CS c4c1im+
    268      11   10   0.060000  3.208017e+00 -6.014392e+00 -2.328740e+01  # HC c4c1im+
    269      11   10   0.060000  3.270087e+00 -6.462909e+00 -2.500849e+01  # HC c4c1im+
    270      11   11  -0.180000  4.823679e+00 -4.261597e+00 -2.460602e+01  # CT c4c1im+
    271      11   10   0.060000  2.880697e+00 -3.639460e+00 -2.391812e+01  # HC c4c1im+
    272      11   10   0.060000  2.942767e+00 -4.087977e+00 -2.563920e+01  # HC c4c1im+
    273      11   10   0.060000  5.140587e+00 -3.249657e+00 -2.485830e+01  # HC c4c1im+
    274      11   10   0.060000  5.241145e+00 -4.963191e+00 -2.532823e+01  # HC c4c1im+
    275      11   10   0.060000  5.179075e+00 -4.514675e+00 -2.360715e+01  # HC c4c1im+
    276      12    1   0.150000  1.335089e+01 -1.180063e+01 -4.514220e+00  # NA c4c1im+
    277      12    2  -0.110000  1.215444e+01 -1.214670e+01 -4.936070e+00  # CR c4c1im+
    278      12    1   0.150000  1.200718e+01 -1.344974e+01 -4.838016e+00  # NA c4c1im+
    279      12    3  -0.130000  1.317400e+01 -1.397267e+01 -4.324241e+00  # CW c4c1im+
    280      12    3  -0.130000  1.401143e+01 -1.294492e+01 -4.122445e+00  # CW c4c1im+
    281      12    4  -0.170000  1.389665e+01 -1.044090e+01 -4.464799e+00  # C1 c4c1im+
    282      12    5   0.210000  1.140514e+01 -1.146326e+01 -5.307365e+00  # HCR c4c1im+
    283      12    4  -0.170000  1.081510e+01 -1.421871e+01 -5.207854e+00  # C1 c4c1im+
    284      12    6   0.210000  1.337603e+01 -1.501418e+01 -4.122137e+00  # HCW c4c1im+
    285      12    6   0.210000  1.501484e+01 -1.300289e+01 -3.727228e+00  # HCW c4c1im+
    286      12    7   0.130000  1.479105e+01 -1.038505e+01 -5.085301e+00  # H1 c4c1im+
    287      12    7   0.130000  1.315258e+01 -9.736456e+00 -4.836570e+00  # H1 c4c1im+
    288      12    7   0.130000  1.415267e+01 -1.018878e+01 -3.435728e+00  # H1 c4c1im+
    289      12    8   0.010000  9.739421e+00 -1.326966e+01 -5.737061e+00  # C2 c4c1im+
    290      12    7   0.130000  1.107391e+01 -1.494141e+01 -5.981695e+00  # H1 c4c1im+
    291      12    7   0.130000  1.043553e+01 -1.474513e+01 -4.332123e+00  # H1 c4c1im+
    292      12    9  -0.120000  8.496110e+00 -1.407168e+01 -6.122793e+00  # CS c4c1im+
    293      12   10   0.060000  9.479436e+00 -1.254690e+01 -4.963683e+00  # HC c4c1im+
    294      12   10   0.060000  1.011782e+01 -1.274317e+01 -6.613256e+00  # HC c4c1im+
    295      12   11  -0.180000  7.420428e+00 -1.312263e+01 -6.652000e+00  # CT c4c1im+
    296      12   10   0.060000  8.116540e+00 -1.459810e+01 -5.247062e+00  # HC c4c1im+
    297      12   10   0.060000  8.754920e+00 -1.479438e+01 -6.896634e+00  # HC c4c1im+
    298      12   10   0.060000  6.534092e+00 -1.369438e+01 -6.926982e+00  # HC c4c1im+
    299      12   10   0.060000  7.798824e+00 -1.259614e+01 -7.528194e+00  # HC c4c1im+
    300      12   10   0.060000  7.160444e+00 -1.239986e+01 -5.878622e+00  # HC c4c1im+
    301      13    1   0.150000  2.680258e+00 -4.536399e+00  1.739334e+01  # NA c4c1im+
    302      13    2  -0.110000  2.133539e+00 -3.386696e+00  1.772274e+01  # CR c4c1im+
    303      13    1   0.150000  2.316656e+00 -2.513388e+00  1.675680e+01  # NA c4c1im+