created by fftool

8000 atoms
6912 bonds
11776 angles
16384 dihedrals
15 atom types
10 bond types
14 angle types
23 dihedral types
   -15.750970182    16.036605587 xlo xhi
   -16.275814455    17.531115324 ylo yhi
   -33.383603858    33.383603858 zlo zhi

Masses

   1   14.007  # NA
   2   12.011  # CR
   3   12.011  # CW
   4   12.011  # C1
   5    1.008  # HCR
   6    1.008  # HCW
   7    1.008  # H1
   8   12.011  # C2
   9   12.011  # CS
  10    1.008  # HC
  11   12.011  # CT
  12   32.066  # SK
  13   12.011  # CK
  14   14.001  # NK
  15   12.011  #CG
Bond Coeffs

   1   477.055449     1.315000  # CR-NA
   2   427.103250     1.378000  # CW-NA
   3   520.076482     1.341000  # CW-CW
   4   336.998088     1.466000  # NA-CT
   5   339.985660     1.080000  # CR-HA
   6   339.985660     1.080000  # CW-HA
   7   339.985660     1.090000  # HC-CT
   8   267.925430     1.529000  # CT-CT
   9   339.005736     1.670000  # SK-CK
  10  1460.504302     1.190000  # CK-NK

Angle Coeffs

   1    70.004780   126.400000  # CR-NA-CT
   2    70.004780   108.000000  # CW-NA-CR
   3    70.004780   125.600000  # CW-NA-CT
   4    70.004780   109.800000  # NA-CR-NA
   5    35.002390   125.100000  # NA-CR-HA
   6    70.004780   107.100000  # NA-CW-CW
   7    35.002390   122.000000  # NA-CW-HA
   8    35.002390   130.900000  # CW-CW-HA
   9    37.500000   110.700000  # NA-CT-HC
  10    32.994742   107.800000  # HC-CT-HC
  11    58.353250   112.700000  # NA-CT-CT
  12    37.500000   110.700000  # CT-CT-HC
  13    58.353250   112.700000  # CT-CT-CT
  14    77.903920   180.000000  # SK-CK-NK

Dihedral Coeffs

   1     0.000000     4.651052     0.000000     0.000000  # CT-NA-CR-NA
   2     0.000000     4.651052     0.000000     0.000000  # CW-NA-CR-NA
   3     0.000000     4.651052     0.000000     0.000000  # CT-NA-CR-HA
   4     0.000000     4.651052     0.000000     0.000000  # CW-NA-CR-HA
   5     0.000000     3.000000     0.000000     0.000000  # CR-NA-CW-CW
   6     0.000000     3.000000     0.000000     0.000000  # CT-NA-CW-CW
   7     0.000000     3.000000     0.000000     0.000000  # CR-NA-CW-HA
   8     0.000000     3.000000     0.000000     0.000000  # CT-NA-CW-HA
   9     0.000000    10.750478     0.000000     0.000000  # NA-CW-CW-HA
  10     0.000000    10.750478     0.000000     0.000000  # HA-CW-CW-HA
  11     0.000000    10.750478     0.000000     0.000000  # NA-CW-CW-NA
  12     0.000000     0.000000     0.000000     0.000000  # CR-NA-CT-HC
  13     0.000000     0.000000     0.124044     0.000000  # CW-NA-CT-HC
  14    -1.259345     0.000000     0.000000     0.000000  # CR-NA-CT-CT
  15    -1.709728     1.459465     0.189747     0.000000  # CW-NA-CT-CT
  16    -1.787691     0.756262    -0.287428     0.000000  # NA-CT-CT-CT
  17     0.000000     0.000000     0.300000     0.000000  # CT-CT-CT-HC
  18     0.000000     0.000000     0.087715     0.000000  # NA-CT-CT-HC
  19     0.000000     0.000000     0.300000     0.000000  # HC-CT-CT-HC
  20     1.300000    -0.050000     0.200000     0.000000  # CT-CT-CT-CT
  21     0.000000     2.000000     0.000000     0.000000  # CR-CW-NA-CT
  22     0.000000     2.200000     0.000000     0.000000  # NA-NA-CR-HA
  23     0.000000     2.200000     0.000000     0.000000  # NA-CW-CW-HA

Atoms

      1       1    1   0.150000 -9.789745e+00 -4.648303e+00 -3.873489e+00  # NA c4c1im+
      2       1    2  -0.110000 -8.665187e+00 -4.784751e+00 -3.205675e+00  # CR c4c1im+
      3       1    1   0.150000 -8.643629e+00 -3.945654e+00 -2.193412e+00  # NA c4c1im+
      4       1    3  -0.130000 -9.820091e+00 -3.228332e+00 -2.209791e+00  # CW c4c1im+
      5       1    3  -0.130000 -1.053437e+01 -3.666235e+00 -3.256846e+00  # CW c4c1im+
      6       1    4  -0.170000 -1.019129e+01 -5.402177e+00 -5.064956e+00  # C1 c4c1im+
      7       1    5   0.210000 -7.877468e+00 -5.481448e+00 -3.451667e+00  # HCR c4c1im+
      8       1    4  -0.170000 -7.562503e+00 -3.793576e+00 -1.215048e+00  # C1 c4c1im+
      9       1    6   0.210000 -1.011194e+01 -2.458395e+00 -1.510919e+00  # HCW c4c1im+
     10       1    6   0.210000 -1.150977e+01 -3.315360e+00 -3.559978e+00  # HCW c4c1im+
     11       1    7   0.130000 -1.035108e+01 -4.713463e+00 -5.894559e+00  # H1 c4c1im+
     12       1    7   0.130000 -9.406678e+00 -6.111515e+00 -5.328251e+00  # H1 c4c1im+
     13       1    7   0.130000 -1.111509e+01 -5.942868e+00 -4.859194e+00  # H1 c4c1im+
     14       1    8   0.010000 -6.434642e+00 -4.771954e+00 -1.544513e+00  # C2 c4c1im+
     15       1    7   0.130000 -7.180021e+00 -2.773522e+00 -1.251062e+00  # H1 c4c1im+
     16       1    7   0.130000 -7.944038e+00 -4.002927e+00 -2.156970e-01  # H1 c4c1im+
     17       1    9  -0.120000 -5.307056e+00 -4.613341e+00 -5.241060e-01  # CS c4c1im+
     18       1   10   0.060000 -6.815981e+00 -5.792423e+00 -1.508150e+00  # HC c4c1im+
     19       1   10   0.060000 -6.051964e+00 -4.563018e+00 -2.543515e+00  # HC c4c1im+
     20       1   11  -0.180000 -4.179195e+00 -5.591719e+00 -8.535710e-01  # CT c4c1im+
     21       1   10   0.060000 -5.688592e+00 -4.822692e+00  4.752460e-01  # HC c4c1im+
     22       1   10   0.060000 -4.924574e+00 -3.593287e+00 -5.601190e-01  # HC c4c1im+
     23       1   10   0.060000 -3.375357e+00 -5.478646e+00 -1.261380e-01  # HC c4c1im+
     24       1   10   0.060000 -3.796517e+00 -5.382784e+00 -1.852572e+00  # HC c4c1im+
     25       1   10   0.060000 -4.560534e+00 -6.612189e+00 -8.172070e-01  # HC c4c1im+
     26       2    1   0.150000 -9.078713e+00 -5.282919e+00 -1.134510e+01  # NA c4c1im+
     27       2    2  -0.110000 -9.945128e+00 -4.301076e+00 -1.146565e+01  # CR c4c1im+
     28       2    1   0.150000 -1.069424e+01 -4.233093e+00 -1.038702e+01  # NA c4c1im+
     29       2    3  -0.130000 -1.028786e+01 -5.226695e+00 -9.523025e+00  # CW c4c1im+
     30       2    3  -0.130000 -9.281033e+00 -5.880967e+00 -1.012011e+01  # CW c4c1im+
     31       2    4  -0.170000 -8.070886e+00 -5.680380e+00 -1.233275e+01  # C1 c4c1im+
     32       2    5   0.210000 -1.002890e+01 -3.648432e+00 -1.232206e+01  # HCR c4c1im+
     33       2    4  -0.170000 -1.177369e+01 -3.272627e+00 -1.013916e+01  # C1 c4c1im+
     34       2    6   0.210000 -1.070222e+01 -5.438606e+00 -8.548451e+00  # HCW c4c1im+
     35       2    6   0.210000 -8.731894e+00 -6.718997e+00 -9.716936e+00  # HCW c4c1im+
     36       2    7   0.130000 -8.244344e+00 -6.713437e+00 -1.263409e+01  # H1 c4c1im+
     37       2    7   0.130000 -8.140937e+00 -5.031211e+00 -1.320555e+01  # H1 c4c1im+
     38       2    7   0.130000 -7.076972e+00 -5.592433e+00 -1.189400e+01  # H1 c4c1im+
     39       2    8   0.010000 -1.191032e+01 -2.337049e+00 -1.134077e+01  # C2 c4c1im+
     40       2    7   0.130000 -1.271055e+01 -3.809038e+00 -9.988625e+00  # H1 c4c1im+
     41       2    7   0.130000 -1.154318e+01 -2.688034e+00 -9.248536e+00  # H1 c4c1im+
     42       2    9  -0.120000 -1.303616e+01 -1.335308e+00 -1.108226e+01  # CS c4c1im+
     43       2   10   0.060000 -1.097410e+01 -1.799657e+00 -1.149179e+01  # HC c4c1im+
     44       2   10   0.060000 -1.214147e+01 -2.920662e+00 -1.223188e+01  # HC c4c1im+
     45       2   11  -0.180000 -1.317278e+01 -3.997300e-01 -1.228387e+01  # CT c4c1im+
     46       2   10   0.060000 -1.280564e+01 -7.507150e-01 -1.019163e+01  # HC c4c1im+
     47       2   10   0.060000 -1.397302e+01 -1.871720e+00 -1.093172e+01  # HC c4c1im+
     48       2   10   0.060000 -1.397538e+01  3.143950e-01 -1.209958e+01  # HC c4c1im+
     49       2   10   0.060000 -1.340393e+01 -9.833430e-01 -1.317497e+01  # HC c4c1im+
     50       2   10   0.060000 -1.223656e+01  1.376620e-01 -1.243488e+01  # HC c4c1im+
     51       3    1   0.150000 -5.617213e+00 -9.251807e+00  7.087810e+00  # NA c4c1im+
     52       3    2  -0.110000 -5.739811e+00 -9.060474e+00  5.792593e+00  # CR c4c1im+
     53       3    1   0.150000 -5.762593e+00 -7.771573e+00  5.532906e+00  # NA c4c1im+
     54       3    3  -0.130000 -5.648285e+00 -7.094401e+00  6.727583e+00  # CW c4c1im+
     55       3    3  -0.130000 -5.557682e+00 -8.016910e+00  7.696629e+00  # CW c4c1im+
     56       3    4  -0.170000 -5.553955e+00 -1.054563e+01  7.774234e+00  # C1 c4c1im+
     57       3    5   0.210000 -5.811094e+00 -9.844316e+00  5.053058e+00  # HCR c4c1im+
     58       3    4  -0.170000 -5.887332e+00 -7.155118e+00  4.208677e+00  # C1 c4c1im+
     59       3    6   0.210000 -5.634299e+00 -6.022490e+00  6.858772e+00  # HCW c4c1im+
     60       3    6   0.210000 -5.456990e+00 -7.827816e+00  8.755167e+00  # HCW c4c1im+
     61       3    7   0.130000 -6.380935e+00 -1.062391e+01  8.479979e+00  # H1 c4c1im+
     62       3    7   0.130000 -5.624584e+00 -1.134988e+01  7.041911e+00  # H1 c4c1im+
     63       3    7   0.130000 -4.609245e+00 -1.062645e+01  8.311905e+00  # H1 c4c1im+
     64       3    8   0.010000 -5.989861e+00 -8.248175e+00  3.144462e+00  # C2 c4c1im+
     65       3    7   0.130000 -6.783069e+00 -6.534734e+00  4.179051e+00  # H1 c4c1im+
     66       3    7   0.130000 -5.011380e+00 -6.537281e+00  4.010977e+00  # H1 c4c1im+
     67       3    9  -0.120000 -6.119960e+00 -7.605230e+00  1.763326e+00  # CS c4c1im+
     68       3   10   0.060000 -5.094241e+00 -8.868787e+00  3.172850e+00  # HC c4c1im+
     69       3   10   0.060000 -6.865931e+00 -8.866240e+00  3.340924e+00  # HC c4c1im+
     70       3   11  -0.180000 -6.222489e+00 -8.698287e+00  6.991110e-01  # CT c4c1im+
     71       3   10   0.060000 -5.244008e+00 -6.987392e+00  1.565627e+00  # HC c4c1im+
     72       3   10   0.060000 -7.015698e+00 -6.984845e+00  1.733700e+00  # HC c4c1im+
     73       3   10   0.060000 -6.315235e+00 -8.239941e+00 -2.854780e-01  # HC c4c1im+
     74       3   10   0.060000 -7.098559e+00 -9.316352e+00  8.955730e-01  # HC c4c1im+
     75       3   10   0.060000 -5.326869e+00 -9.318899e+00  7.274990e-01  # HC c4c1im+
     76       4    1   0.150000 -7.625553e+00  7.980979e+00 -3.265814e+00  # NA c4c1im+
     77       4    2  -0.110000 -6.674530e+00  7.082986e+00 -3.401423e+00  # CR c4c1im+
     78       4    1   0.150000 -6.107252e+00  7.209603e+00 -4.580994e+00  # NA c4c1im+
     79       4    3  -0.130000 -6.727376e+00  8.247226e+00 -5.242559e+00  # CW c4c1im+
     80       4    3  -0.130000 -7.673609e+00  8.727962e+00 -4.422915e+00  # CW c4c1im+
     81       4    4  -0.170000 -8.488664e+00  8.164476e+00 -2.095119e+00  # C1 c4c1im+
     82       4    5   0.210000 -6.400475e+00  6.351250e+00 -2.655865e+00  # HCR c4c1im+
     83       4    4  -0.170000 -5.008192e+00  6.394695e+00 -5.107444e+00  # C1 c4c1im+
     84       4    6   0.210000 -6.495060e+00  8.605791e+00 -6.234456e+00  # HCW c4c1im+
     85       4    6   0.210000 -8.346813e+00  9.546577e+00 -4.630434e+00  # HCW c4c1im+
     86       4    7   0.130000 -9.530162e+00  8.027076e+00 -2.385811e+00  # H1 c4c1im+
     87       4    7   0.130000 -8.225728e+00  7.432998e+00 -1.330983e+00  # H1 c4c1im+
     88       4    7   0.130000 -8.352752e+00  9.169983e+00 -1.696892e+00  # H1 c4c1im+
     89       4    8   0.010000 -4.603302e+00  5.350265e+00 -4.066737e+00  # C2 c4c1im+
     90       4    7   0.130000 -5.332051e+00  5.892141e+00 -6.018846e+00  # H1 c4c1im+
     91       4    7   0.130000 -4.154640e+00  7.035047e+00 -5.329926e+00  # H1 c4c1im+
     92       4    9  -0.120000 -3.457011e+00  4.500338e+00 -4.615810e+00  # CS c4c1im+
     93       4   10   0.060000 -4.278658e+00  5.851860e+00 -3.155086e+00  # HC c4c1im+
     94       4   10   0.060000 -5.456069e+00  4.708954e+00 -3.844005e+00  # HC c4c1im+
     95       4   11  -0.180000 -3.052121e+00  3.455907e+00 -3.575103e+00  # CT c4c1im+
     96       4   10   0.060000 -2.603459e+00  5.140689e+00 -4.838293e+00  # HC c4c1im+
     97       4   10   0.060000 -3.780870e+00  3.997783e+00 -5.527213e+00  # HC c4c1im+
     98       4   10   0.060000 -2.234948e+00  2.850008e+00 -3.966529e+00  # HC c4c1im+
     99       4   10   0.060000 -3.904888e+00  2.814597e+00 -3.352371e+00  # HC c4c1im+
    100       4   10   0.060000 -2.727477e+00  3.957503e+00 -2.663452e+00  # HC c4c1im+
    101       5    1   0.150000 -8.356700e-02 -9.263208e+00 -1.966733e+01  # NA c4c1im+
    102       5    2  -0.110000  1.127179e+00 -9.747446e+00 -1.949752e+01  # CR c4c1im+
    103       5    1   0.150000  1.063905e+00 -1.104595e+01 -1.929979e+01  # NA c4c1im+
    104       5    3  -0.130000 -2.617590e-01 -1.141943e+01 -1.934469e+01  # CW c4c1im+
    105       5    3  -0.130000 -9.768850e-01 -1.030839e+01 -1.957374e+01  # CW c4c1im+
    106       5    4  -0.170000 -4.334200e-01 -7.860991e+00 -1.991339e+01  # C1 c4c1im+
    107       5    5   0.210000  2.037034e+00 -9.165925e+00 -1.951746e+01  # HCR c4c1im+
    108       5    4  -0.170000  2.198785e+00 -1.194535e+01 -1.907110e+01  # C1 c4c1im+
    109       5    6   0.210000 -6.514470e-01 -1.241881e+01 -1.921905e+01  # HCW c4c1im+
    110       5    6   0.210000 -2.050928e+00 -1.024453e+01 -1.966730e+01  # HCW c4c1im+
    111       5    7   0.130000 -1.085816e+00 -7.503558e+00 -1.911670e+01  # H1 c4c1im+
    112       5    7   0.130000  4.744260e-01 -7.258192e+00 -1.993681e+01  # H1 c4c1im+
    113       5    7   0.130000 -9.493630e-01 -7.777166e+00 -2.086988e+01  # H1 c4c1im+
    114       5    8   0.010000  3.499553e+00 -1.114206e+01 -1.909523e+01  # C2 c4c1im+
    115       5    7   0.130000  2.089413e+00 -1.242970e+01 -1.810077e+01  # H1 c4c1im+
    116       5    7   0.130000  2.225865e+00 -1.270331e+01 -1.985396e+01  # H1 c4c1im+
    117       5    9  -0.120000  4.683203e+00 -1.208010e+01 -1.885671e+01  # CS c4c1im+
    118       5   10   0.060000  3.610183e+00 -1.065778e+01 -2.006545e+01  # HC c4c1im+
    119       5   10   0.060000  3.473730e+00 -1.038417e+01 -1.831226e+01  # HC c4c1im+
    120       5   11  -0.180000  5.983971e+00 -1.127682e+01 -1.888083e+01  # CT c4c1im+
    121       5   10   0.060000  4.710283e+00 -1.283807e+01 -1.963956e+01  # HC c4c1im+
    122       5   10   0.060000  4.573830e+00 -1.256446e+01 -1.788638e+01  # HC c4c1im+
    123       5   10   0.060000  6.827776e+00 -1.194554e+01 -1.871080e+01  # HC c4c1im+
    124       5   10   0.060000  5.958148e+00 -1.051893e+01 -1.809787e+01  # HC c4c1im+
    125       5   10   0.060000  6.094600e+00 -1.079254e+01 -1.985105e+01  # HC c4c1im+
    126       6    1   0.150000  1.420455e+01  1.451437e+01  1.104917e+01  # NA c4c1im+
    127       6    2  -0.110000  1.439512e+01  1.363624e+01  1.008907e+01  # CR c4c1im+
    128       6    1   0.150000  1.326145e+01  1.340737e+01  9.463273e+00  # NA c4c1im+
    129       6    3  -0.130000  1.228570e+01  1.418129e+01  1.005307e+01  # CW c4c1im+
    130       6    3  -0.130000  1.287346e+01  1.487119e+01  1.104143e+01  # CW c4c1im+
    131       6    4  -0.170000  1.522097e+01  1.503010e+01  1.197116e+01  # C1 c4c1im+
    132       6    5   0.210000  1.534085e+01  1.317256e+01  9.850322e+00  # HCR c4c1im+
    133       6    4  -0.170000  1.306192e+01  1.249181e+01  8.335849e+00  # C1 c4c1im+
    134       6    6   0.210000  1.124375e+01  1.422416e+01  9.772194e+00  # HCW c4c1im+
    135       6    6   0.210000  1.239398e+01  1.557427e+01  1.170639e+01  # HCW c4c1im+
    136       6    7   0.130000  1.493761e+01  1.479057e+01  1.299607e+01  # H1 c4c1im+
    137       6    7   0.130000  1.618377e+01  1.457212e+01  1.174446e+01  # H1 c4c1im+
    138       6    7   0.130000  1.529835e+01  1.611159e+01  1.185944e+01  # H1 c4c1im+
    139       6    8   0.010000  1.439014e+01  1.182309e+01  7.980184e+00  # C2 c4c1im+
    140       6    7   0.130000  1.233384e+01  1.172880e+01  8.611208e+00  # H1 c4c1im+
    141       6    7   0.130000  1.269458e+01  1.304982e+01  7.474585e+00  # H1 c4c1im+
    142       6    9  -0.120000  1.418204e+01  1.086818e+01  6.804310e+00  # CS c4c1im+
    143       6   10   0.060000  1.511879e+01  1.258527e+01  7.704049e+00  # HC c4c1im+
    144       6   10   0.060000  1.475805e+01  1.126425e+01  8.840673e+00  # HC c4c1im+
    145       6   11  -0.180000  1.551025e+01  1.019945e+01  6.448645e+00  # CT c4c1im+
    146       6   10   0.060000  1.381470e+01  1.142619e+01  5.943046e+00  # HC c4c1im+
    147       6   10   0.060000  1.345396e+01  1.010517e+01  7.079669e+00  # HC c4c1im+
    148       6   10   0.060000  1.536190e+01  9.518712e+00  5.610383e+00  # HC c4c1im+
    149       6   10   0.060000  1.587816e+01  9.640615e+00  7.309134e+00  # HC c4c1im+
    150       6   10   0.060000  1.623890e+01  1.096163e+01  6.172510e+00  # HC c4c1im+
    151       7    1   0.150000 -1.349980e+01  1.429698e+01  2.444824e+01  # NA c4c1im+
    152       7    2  -0.110000 -1.315214e+01  1.375958e+01  2.329951e+01  # CR c4c1im+
    153       7    1   0.150000 -1.186416e+01  1.393257e+01  2.309848e+01  # NA c4c1im+
    154       7    3  -0.130000 -1.135321e+01  1.461988e+01  2.417803e+01  # CW c4c1im+
    155       7    3  -0.130000 -1.237258e+01  1.484699e+01  2.501922e+01  # CW c4c1im+
    156       7    4  -0.170000 -1.484571e+01  1.431410e+01  2.502910e+01  # C1 c4c1im+
    157       7    5   0.210000 -1.382367e+01  1.325226e+01  2.262271e+01  # HCR c4c1im+
    158       7    4  -0.170000 -1.109873e+01  1.347761e+01  2.193389e+01  # C1 c4c1im+
    159       7    6   0.210000 -1.032530e+01  1.491929e+01  2.431993e+01  # HCW c4c1im+
    160       7    6   0.210000 -1.232016e+01  1.536374e+01  2.596612e+01  # HCW c4c1im+
    161       7    7   0.130000 -1.516838e+01  1.534576e+01  2.516934e+01  # H1 c4c1im+
    162       7    7   0.130000 -1.553802e+01  1.380543e+01  2.435824e+01  # H1 c4c1im+
    163       7    7   0.130000 -1.483286e+01  1.380386e+01  2.599221e+01  # H1 c4c1im+
    164       7    8   0.010000 -1.203108e+01  1.275539e+01  2.096076e+01  # C2 c4c1im+
    165       7    7   0.130000 -1.064920e+01  1.433661e+01  2.143575e+01  # H1 c4c1im+
    166       7    7   0.130000 -1.031368e+01  1.279471e+01  2.225862e+01  # H1 c4c1im+
    167       7    9  -0.120000 -1.123276e+01  1.228088e+01  1.974612e+01  # CS c4c1im+
    168       7   10   0.060000 -1.248067e+01  1.189578e+01  2.145779e+01  # HC c4c1im+
    169       7   10   0.060000 -1.281619e+01  1.343768e+01  2.063492e+01  # HC c4c1im+
    170       7   11  -0.180000 -1.216510e+01  1.155866e+01  1.877299e+01  # CT c4c1im+
    171       7   10   0.060000 -1.044771e+01  1.159798e+01  2.007085e+01  # HC c4c1im+
    172       7   10   0.060000 -1.078323e+01  1.313988e+01  1.924798e+01  # HC c4c1im+
    173       7   10   0.060000 -1.159599e+01  1.122039e+01  1.790709e+01  # HC c4c1im+
    174       7   10   0.060000 -1.295022e+01  1.224095e+01  1.844715e+01  # HC c4c1im+
    175       7   10   0.060000 -1.261470e+01  1.069905e+01  1.927003e+01  # HC c4c1im+
    176       8    1   0.150000 -1.410972e+01  1.530477e+01  1.101991e+01  # NA c4c1im+
    177       8    2  -0.110000 -1.431966e+01  1.511552e+01  9.735647e+00  # CR c4c1im+
    178       8    1   0.150000 -1.321698e+01  1.536212e+01  9.062952e+00  # NA c4c1im+
    179       8    3  -0.130000 -1.224189e+01  1.573091e+01  9.964098e+00  # CW c4c1im+
    180       8    3  -0.130000 -1.279826e+01  1.569517e+01  1.118371e+01  # CW c4c1im+
    181       8    4  -0.170000 -1.509002e+01  1.513374e+01  1.209644e+01  # C1 c4c1im+
    182       8    5   0.210000 -1.525708e+01  1.480425e+01  9.298888e+00  # HCR c4c1im+
    183       8    4  -0.170000 -1.304638e+01  1.526438e+01  7.610196e+00  # C1 c4c1im+
    184       8    6   0.210000 -1.122164e+01  1.599839e+01  9.731849e+00  # HCW c4c1im+
    185       8    6   0.210000 -1.231044e+01  1.592845e+01  1.211860e+01  # HCW c4c1im+
    186       8    7   0.130000 -1.522083e+01  1.607912e+01  1.262299e+01  # H1 c4c1im+
    187       8    7   0.130000 -1.604398e+01  1.481913e+01  1.167325e+01  # H1 c4c1im+
    188       8    7   0.130000 -1.473517e+01  1.437565e+01  1.279462e+01  # H1 c4c1im+
    189       8    8   0.010000 -1.436340e+01  1.482440e+01  6.970092e+00  # C2 c4c1im+
    190       8    7   0.130000 -1.275626e+01  1.623656e+01  7.211696e+00  # H1 c4c1im+
    191       8    7   0.130000 -1.227060e+01  1.453309e+01  7.383329e+00  # H1 c4c1im+
    192       8    9  -0.120000 -1.418547e+01  1.472247e+01  5.454905e+00  # CS c4c1im+
    193       8   10   0.060000 -1.465409e+01  1.385195e+01  7.367501e+00  # HC c4c1im+
    194       8   10   0.060000 -1.513976e+01  1.555542e+01  7.195868e+00  # HC c4c1im+
    195       8   11  -0.180000 -1.550248e+01  1.428249e+01  4.814801e+00  # CT c4c1im+
    196       8   10   0.060000 -1.340968e+01  1.399118e+01  5.228038e+00  # HC c4c1im+
    197       8   10   0.060000 -1.389535e+01  1.569465e+01  5.056405e+00  # HC c4c1im+
    198       8   10   0.060000 -1.537564e+01  1.420983e+01  3.734649e+00  # HC c4c1im+
    199       8   10   0.060000 -1.627884e+01  1.501351e+01  5.040578e+00  # HC c4c1im+
    200       8   10   0.060000 -1.579317e+01  1.331004e+01  5.212210e+00  # HC c4c1im+
    201       9    1   0.150000 -1.371438e+01 -1.518320e+01  2.841528e+01  # NA c4c1im+
    202       9    2  -0.110000 -1.241869e+01 -1.507338e+01  2.861116e+01  # CR c4c1im+
    203       9    1   0.150000 -1.177953e+01 -1.525730e+01  2.747677e+01  # NA c4c1im+
    204       9    3  -0.130000 -1.271565e+01 -1.549919e+01  2.649491e+01  # CW c4c1im+
    205       9    3  -0.130000 -1.392149e+01 -1.545301e+01  2.707981e+01  # CW c4c1im+
    206       9    4  -0.170000 -1.476280e+01 -1.504504e+01  2.943060e+01  # C1 c4c1im+
    207       9    5   0.210000 -1.194984e+01 -1.486359e+01  2.956120e+01  # HCR c4c1im+
    208       9    4  -0.170000 -1.032715e+01 -1.521432e+01  2.728206e+01  # C1 c4c1im+
    209       9    6   0.210000 -1.251581e+01 -1.569003e+01  2.545086e+01  # HCW c4c1im+
    210       9    6   0.210000 -1.487560e+01 -1.559966e+01  2.659549e+01  # HCW c4c1im+
    211       9    7   0.130000 -1.533257e+01 -1.597211e+01  2.949377e+01  # H1 c4c1im+
    212       9    7   0.130000 -1.430703e+01 -1.483268e+01  3.039769e+01  # H1 c4c1im+
    213       9    7   0.130000 -1.542944e+01 -1.422744e+01  2.915632e+01  # H1 c4c1im+
    214       9    8   0.010000 -9.641854e+00 -1.491818e+01  2.861642e+01  # C2 c4c1im+
    215       9    7   0.130000 -9.982279e+00 -1.617621e+01  2.690268e+01  # H1 c4c1im+
    216       9    7   0.130000 -1.007915e+01 -1.443154e+01  2.656523e+01  # H1 c4c1im+
    217       9    9  -0.120000 -8.127063e+00 -1.487336e+01  2.841336e+01  # CS c4c1im+
    218       9   10   0.060000 -9.985610e+00 -1.395612e+01  2.899638e+01  # HC c4c1im+
    219       9   10   0.060000 -9.888742e+00 -1.570079e+01  2.933383e+01  # HC c4c1im+
    220       9   11  -0.180000 -7.441769e+00 -1.457722e+01  2.974772e+01  # CT c4c1im+
    221       9   10   0.060000 -7.879062e+00 -1.409057e+01  2.769653e+01  # HC c4c1im+
    222       9   10   0.060000 -7.782194e+00 -1.583525e+01  2.803398e+01  # HC c4c1im+
    223       9   10   0.060000 -6.361898e+00 -1.454526e+01  2.960295e+01  # HC c4c1im+
    224       9   10   0.060000 -7.688657e+00 -1.535983e+01  3.046512e+01  # HC c4c1im+
    225       9   10   0.060000 -7.785525e+00 -1.361516e+01  3.012767e+01  # HC c4c1im+
    226      10    1   0.150000  4.018253e+00  5.957472e+00  1.582338e+01  # NA c4c1im+
    227      10    2  -0.110000  4.937050e+00  5.487995e+00  1.500813e+01  # CR c4c1im+
    228      10    1   0.150000  5.859797e+00  6.402182e+00  1.480313e+01  # NA c4c1im+
    229      10    3  -0.130000  5.516463e+00  7.523519e+00  1.552674e+01  # CW c4c1im+
    230      10    3  -0.130000  4.368779e+00  7.246368e+00  1.616258e+01  # CW c4c1im+
    231      10    4  -0.170000  2.827112e+00  5.244825e+00  1.629505e+01  # C1 c4c1im+
    232      10    5   0.210000  4.934228e+00  4.499837e+00  1.457231e+01  # HCR c4c1im+
    233      10    4  -0.170000  7.047707e+00  6.261511e+00  1.395564e+01  # C1 c4c1im+
    234      10    6   0.210000  6.067884e+00  8.450982e+00  1.557306e+01  # HCW c4c1im+
    235      10    6   0.210000  3.821897e+00  7.908605e+00  1.681737e+01  # HCW c4c1im+
    236      10    7   0.130000  1.933100e+00  5.788497e+00  1.598966e+01  # H1 c4c1im+
    237      10    7   0.130000  2.807751e+00  4.243685e+00  1.586441e+01  # H1 c4c1im+
    238      10    7   0.130000  2.853588e+00  5.171672e+00  1.738227e+01  # H1 c4c1im+
    239      10    8   0.010000  7.064267e+00  4.867672e+00  1.332733e+01  # C2 c4c1im+
    240      10    7   0.130000  7.023805e+00  7.014377e+00  1.316778e+01  # H1 c4c1im+
    241      10    7   0.130000  7.944292e+00  6.397552e+00  1.456039e+01  # H1 c4c1im+
    242      10    9  -0.120000  8.303225e+00  4.720956e+00  1.244342e+01  # CS c4c1im+
    243      10   10   0.060000  7.088804e+00  4.114026e+00  1.411442e+01  # HC c4c1im+
    244      10   10   0.060000  6.168316e+00  4.730851e+00  1.272181e+01  # HC c4c1im+
    245      10   11  -0.180000  8.319784e+00  3.327116e+00  1.181510e+01  # CT c4c1im+
    246      10   10   0.060000  9.199811e+00  4.856997e+00  1.304817e+01  # HC c4c1im+
    247      10   10   0.060000  8.279323e+00  5.473822e+00  1.165556e+01  # HC c4c1im+
    248      10   10   0.060000  9.203018e+00  3.222525e+00  1.118498e+01  # HC c4c1im+
    249      10   10   0.060000  7.423834e+00  3.190295e+00  1.120958e+01  # HC c4c1im+
    250      10   10   0.060000  8.344322e+00  2.573471e+00  1.260220e+01  # HC c4c1im+
    251      11    1   0.150000  1.394299e+01  7.699788e+00  1.115466e+01  # NA c4c1im+
    252      11    2  -0.110000  1.391919e+01  7.811811e+00  1.246466e+01  # CR c4c1im+
    253      11    1   0.150000  1.467517e+01  6.881415e+00  1.300510e+01  # NA c4c1im+
    254      11    3  -0.130000  1.521644e+01  6.127641e+00  1.198641e+01  # CW c4c1im+
    255      11    3  -0.130000  1.476014e+01  6.637666e+00  1.083318e+01  # CW c4c1im+
    256      11    4  -0.170000  1.323021e+01  8.548993e+00  1.019552e+01  # C1 c4c1im+
    257      11    5   0.210000  1.336229e+01  8.556267e+00  1.301425e+01  # HCR c4c1im+
    258      11    4  -0.170000  1.490684e+01  6.675288e+00  1.443793e+01  # C1 c4c1im+
    259      11    6   0.210000  1.588273e+01  5.284778e+00  1.209614e+01  # HCW c4c1im+
    260      11    6   0.210000  1.498976e+01  6.282884e+00  9.839298e+00  # HCW c4c1im+
    261      11    7   0.130000  1.254942e+01  7.937191e+00  9.603646e+00  # H1 c4c1im+
    262      11    7   0.130000  1.266168e+01  9.307563e+00  1.073352e+01  # H1 c4c1im+
    263      11    7   0.130000  1.394882e+01  9.034524e+00  9.535243e+00  # H1 c4c1im+
    264      11    8   0.010000  1.412669e+01  7.719980e+00  1.523657e+01  # C2 c4c1im+
    265      11    7   0.130000  1.457146e+01  5.677511e+00  1.472089e+01  # H1 c4c1im+
    266      11    7   0.130000  1.597086e+01  6.774844e+00  1.465249e+01  # H1 c4c1im+
    267      11    9  -0.120000  1.436831e+01  7.504996e+00  1.673097e+01  # CS c4c1im+
    268      11   10   0.060000  1.446179e+01  8.718178e+00  1.495477e+01  # HC c4c1im+
    269      11   10   0.060000  1.306239e+01  7.620845e+00  1.502317e+01  # HC c4c1im+
    270      11   11  -0.180000  1.358816e+01  8.549689e+00  1.752961e+01  # CT c4c1im+
    271      11   10   0.060000  1.543234e+01  7.604552e+00  1.694553e+01  # HC c4c1im+
    272      11   10   0.060000  1.403294e+01  6.507219e+00  1.701393e+01  # HC c4c1im+
    273      11   10   0.060000  1.376041e+01  8.396429e+00  1.859494e+01  # HC c4c1im+
    274      11   10   0.060000  1.252386e+01  8.450553e+00  1.731621e+01  # HC c4c1im+
    275      11   10   0.060000  1.392326e+01  9.547886e+00  1.724781e+01  # HC c4c1im+
    276      12    1   0.150000 -1.061173e+01  2.211841e+00  1.893947e+01  # NA c4c1im+
    277      12    2  -0.110000 -1.090309e+01  3.422031e+00  1.851547e+01  # CR c4c1im+
    278      12    1   0.150000 -1.048345e+01  3.573696e+00  1.727849e+01  # NA c4c1im+
    279      12    3  -0.130000 -9.888372e+00  2.395342e+00  1.688321e+01  # CW c4c1im+
    280      12    3  -0.130000 -9.968319e+00  1.546609e+00  1.791836e+01  # CW c4c1im+
    281      12    4  -0.170000 -1.091316e+01  1.657226e+00  2.026261e+01  # C1 c4c1im+
    282      12    5   0.210000 -1.141086e+01  4.177990e+00  1.909607e+01  # HCR c4c1im+
    283      12    4  -0.170000 -1.062046e+01  4.780377e+00  1.645733e+01  # C1 c4c1im+
    284      12    6   0.210000 -9.441682e+00  2.193374e+00  1.592088e+01  # HCW c4c1im+
    285      12    6   0.210000 -9.598137e+00  5.324270e-01  1.794665e+01  # HCW c4c1im+
    286      12    7   0.130000 -9.985060e+00  1.369858e+00  2.075672e+01  # H1 c4c1im+
    287      12    7   0.130000 -1.142670e+01  2.407853e+00  2.086339e+01  # H1 c4c1im+
    288      12    7   0.130000 -1.155216e+01  7.810160e-01  2.015290e+01  # H1 c4c1im+
    289      12    8   0.010000 -1.133780e+01  5.865687e+00  1.726067e+01  # C2 c4c1im+
    290      12    7   0.130000 -9.632221e+00  5.137181e+00  1.616719e+01  # H1 c4c1im+
    291      12    7   0.130000 -1.119932e+01  4.548340e+00  1.556336e+01  # H1 c4c1im+
    292      12    9  -0.120000 -1.148070e+01  7.124224e+00  1.640422e+01  # CS c4c1im+
    293      12   10   0.060000 -1.232648e+01  5.510069e+00  1.755078e+01  # HC c4c1im+
    294      12   10   0.060000 -1.075938e+01  6.098911e+00  1.815461e+01  # HC c4c1im+
    295      12   11  -0.180000 -1.219805e+01  8.209534e+00  1.720756e+01  # CT c4c1im+
    296      12   10   0.060000 -1.205956e+01  6.892187e+00  1.551026e+01  # HC c4c1im+
    297      12   10   0.060000 -1.049246e+01  7.481028e+00  1.611408e+01  # HC c4c1im+
    298      12   10   0.060000 -1.229992e+01  9.106725e+00  1.659701e+01  # HC c4c1im+
    299      12   10   0.060000 -1.161962e+01  8.442758e+00  1.810150e+01  # HC c4c1im+
    300      12   10   0.060000 -1.318672e+01  7.853916e+00  1.749768e+01  # HC c4c1im+
    301      13    1   0.150000  1.498238e+01 -1.120835e+01  1.576455e+01  # NA c4c1im+
    302      13    2  -0.110000  1.504093e+01 -9.912472e+00  1.598017e+01  # CR c4c1im+
    303      13    1   0.150000  1.526550e+01 -9.282240e+00  1.484809e+01  # NA c4c1im+