created by fftool

10496 atoms
8448 bonds
14848 angles
17920 dihedrals
15 atom types
12 bond types
19 angle types
24 dihedral types
  -19.531618000    19.146212000 xlo xhi
   -19.196579000    19.012374000 ylo yhi
   -42.657124503    42.564903679 zlo zhi

Masses

   1   14.007  # NA
   2   12.011  # CR
   3   12.011  # CW
   4   12.011  # C1
   5    1.008  # HCR
   6    1.008  # HCW
   7    1.008  # H1
   8   12.011  # CE
   9    1.008  # HC
  10   12.011  # CBT
  11   18.998  # F1
  12   32.066  # SBT
  13   14.000  # NBT
  14   15.999  # OBT
  15   12.011  #C
  
Bond Coeffs

   1   477.055449     1.315000  # CR-NA
   2   427.103250     1.378000  # CW-NA
   3   520.076482     1.341000  # CW-CW
   4   336.998088     1.466000  # NA-CT
   5   339.985660     1.080000  # CR-HA
   6   339.985660     1.080000  # CW-HA
   7   339.985660     1.090000  # HC-CT
   8   267.925430     1.529000  # CT-CT
   9   441.921606     1.323000  # FB-CF
  10   233.030593     1.818000  # CF-SB
  11   374.880497     1.570000  # NB-SB
  12   637.069790     1.437000  # SB-OB

Angle Coeffs

   1    70.004780   126.400000  # CR-NA-CT
   2    70.004780   108.000000  # CW-NA-CR
   3    70.004780   125.600000  # CW-NA-CT
   4    70.004780   109.800000  # NA-CR-NA
   5    35.002390   125.100000  # NA-CR-HA
   6    70.004780   107.100000  # NA-CW-CW
   7    35.002390   122.000000  # NA-CW-HA
   8    35.002390   130.900000  # CW-CW-HA
   9    37.500000   110.700000  # NA-CT-HC
  10    32.994742   107.800000  # HC-CT-HC
  11    58.353250   112.700000  # NA-CT-CT
  12    37.500000   110.700000  # CT-CT-HC
  13    93.331740   107.100000  # FB-CF-FB
  14    82.934990   111.700000  # FB-CF-SB
  15    91.300191   103.500000  # NB-SB-CF
  16   103.967495   102.600000  # CF-SB-OB
  17    94.287763   113.600000  # NB-SB-OB
  18   115.798279   118.500000  # OB-SB-OB
  19    80.186424   125.600000  # SB-NB-SB

Dihedral Coeffs

   1     0.000000     4.651052     0.000000     0.000000  # CT-NA-CR-NA
   2     0.000000     4.651052     0.000000     0.000000  # CW-NA-CR-NA
   3     0.000000     4.651052     0.000000     0.000000  # CT-NA-CR-HA
   4     0.000000     4.651052     0.000000     0.000000  # CW-NA-CR-HA
   5     0.000000     3.000000     0.000000     0.000000  # CR-NA-CW-CW
   6     0.000000     3.000000     0.000000     0.000000  # CT-NA-CW-CW
   7     0.000000     3.000000     0.000000     0.000000  # CR-NA-CW-HA
   8     0.000000     3.000000     0.000000     0.000000  # CT-NA-CW-HA
   9     0.000000    10.750478     0.000000     0.000000  # NA-CW-CW-HA
  10     0.000000    10.750478     0.000000     0.000000  # HA-CW-CW-HA
  11     0.000000    10.750478     0.000000     0.000000  # NA-CW-CW-NA
  12     0.000000     0.000000     0.000000     0.000000  # CR-NA-CT-HC
  13     0.000000     0.000000     0.124044     0.000000  # CW-NA-CT-HC
  14    -1.259345     0.000000     0.000000     0.000000  # CR-NA-CT-CT
  15    -1.709728     1.459465     0.189747     0.000000  # CW-NA-CT-CT
  16     0.000000     0.000000     0.087715     0.000000  # NA-CT-CT-HC
  17     0.000000     0.000000     0.300000     0.000000  # HC-CT-CT-HC
  18     0.000000     0.000000     0.315966     0.000000  # NB-SB-CF-FB
  19     0.000000     0.000000     0.346797     0.000000  # OB-SB-CF-FB
  20     7.832935    -2.490440    -0.763623     0.000000  # SB-NB-SB-CF
  21     0.000000     0.000000    -0.003585     0.000000  # OB-SB-NB-SB
  22     0.000000     2.000000     0.000000     0.000000  # CR-CW-NA-CT
  23     0.000000     2.200000     0.000000     0.000000  # NA-NA-CR-HA
  24     0.000000     2.200000     0.000000     0.000000  # NA-CW-CW-HA

Atoms

      1       1    1   0.150000  1.571941e+01 -4.709426e+00 -2.677809e+01  # NA c2c1im+
      2       1    2  -0.110000  1.481866e+01 -5.278259e+00 -2.754901e+01  # CR c2c1im+
      3       1    1   0.150000  1.376581e+01 -4.497524e+00 -2.765475e+01  # NA c2c1im+
      4       1    3  -0.130000  1.400121e+01 -3.362041e+00 -2.691034e+01  # CW c2c1im+
      5       1    3  -0.130000  1.521872e+01 -3.494102e+00 -2.636399e+01  # CW c2c1im+
      6       1    4  -0.170000  1.702849e+01 -5.261163e+00 -2.641608e+01  # C1 c2c1im+
      7       1    5   0.210000  1.492730e+01 -6.242069e+00 -2.802406e+01  # HCR c2c1im+
      8       1    4  -0.170000  1.255136e+01 -4.777982e+00 -2.842651e+01  # C1 c2c1im+
      9       1    6   0.210000  1.333127e+01 -2.523587e+00 -2.678964e+01  # HCW c2c1im+
     10       1    6   0.210000  1.571391e+01 -2.782027e+00 -2.572045e+01  # HCW c2c1im+
     11       1    7   0.130000  1.709020e+01 -5.371148e+00 -2.533340e+01  # H1 c2c1im+
     12       1    7   0.130000  1.715563e+01 -6.235644e+00 -2.688759e+01  # H1 c2c1im+
     13       1    7   0.130000  1.781435e+01 -4.587507e+00 -2.675771e+01  # H1 c2c1im+
     14       1    8  -0.050000  1.268256e+01 -6.131936e+00 -2.910474e+01  # CE c2c1im+
     15       1    7   0.130000  1.169012e+01 -4.788751e+00 -2.775849e+01  # H1 c2c1im+
     16       1    7   0.130000  1.241427e+01 -4.005110e+00 -2.918280e+01  # H1 c2c1im+
     17       1    9   0.060000  1.177959e+01 -6.340462e+00 -2.967856e+01  # HC c2c1im+
     18       1    9   0.060000  1.354322e+01 -6.122006e+00 -2.977351e+01  # HC c2c1im+
     19       1    9   0.060000  1.281907e+01 -6.905647e+00 -2.834920e+01  # HC c2c1im+
     20       2    1   0.150000  4.561641e+00  2.553588e+00  3.182086e+01  # NA c2c1im+
     21       2    2  -0.110000  4.516093e+00  1.581243e+00  3.093673e+01  # CR c2c1im+
     22       2    1   0.150000  5.393867e+00  1.804570e+00  2.998338e+01  # NA c2c1im+
     23       2    3  -0.130000  6.041305e+00  2.986966e+00  3.026912e+01  # CW c2c1im+
     24       2    3  -0.130000  5.522647e+00  3.453768e+00  3.141427e+01  # CW c2c1im+
     25       2    4  -0.170000  3.740091e+00  2.670060e+00  3.302943e+01  # C1 c2c1im+
     26       2    5   0.210000  3.856692e+00  7.273410e-01  3.098615e+01  # HCR c2c1im+
     27       2    4  -0.170000  5.645764e+00  9.512070e-01  2.881827e+01  # C1 c2c1im+
     28       2    6   0.210000  6.819882e+00  3.450466e+00  2.968142e+01  # HCW c2c1im+
     29       2    6   0.210000  5.804881e+00  4.363984e+00  3.192245e+01  # HCW c2c1im+
     30       2    7   0.130000  3.155707e+00  3.589091e+00  3.298497e+01  # H1 c2c1im+
     31       2    7   0.130000  3.067227e+00  1.815103e+00  3.309579e+01  # H1 c2c1im+
     32       2    7   0.130000  4.385634e+00  2.692708e+00  3.390742e+01  # H1 c2c1im+
     33       2    8  -0.050000  4.727067e+00 -2.587440e-01  2.886744e+01  # CE c2c1im+
     34       2    7   0.130000  5.453979e+00  1.515532e+00  2.790567e+01  # H1 c2c1im+
     35       2    7   0.130000  6.683906e+00  6.191490e-01  2.882812e+01  # H1 c2c1im+
     36       2    9   0.060000  4.914357e+00 -8.932360e-01  2.800116e+01  # HC c2c1im+
     37       2    9   0.060000  4.918516e+00 -8.241360e-01  2.977946e+01  # HC c2c1im+
     38       2    9   0.060000  3.688589e+00  7.224700e-02  2.885701e+01  # HC c2c1im+
     39       3    1   0.150000 -1.210760e+01 -8.777119e+00 -1.141000e+01  # NA c2c1im+
     40       3    2  -0.110000 -1.131227e+01 -8.989357e+00 -1.038452e+01  # CR c2c1im+
     41       3    1   0.150000 -1.195232e+01 -8.735091e+00 -9.264291e+00  # NA c2c1im+
     42       3    3  -0.130000 -1.323169e+01 -8.336710e+00 -9.585831e+00  # CW c2c1im+
     43       3    3  -0.130000 -1.332846e+01 -8.362903e+00 -1.092308e+01  # CW c2c1im+
     44       3    4  -0.170000 -1.176675e+01 -8.947664e+00 -1.282559e+01  # C1 c2c1im+
     45       3    5   0.210000 -1.028717e+01 -9.322516e+00 -1.045218e+01  # HCR c2c1im+
     46       3    4  -0.170000 -1.140822e+01 -8.852196e+00 -7.908044e+00  # C1 c2c1im+
     47       3    6   0.210000 -1.400995e+01 -8.056192e+00 -8.891552e+00  # HCW c2c1im+
     48       3    6   0.210000 -1.419933e+01 -8.107451e+00 -1.150851e+01  # HCW c2c1im+
     49       3    7   0.130000 -1.188373e+01 -7.996624e+00 -1.334514e+01  # H1 c2c1im+
     50       3    7   0.130000 -1.073371e+01 -9.284232e+00 -1.291311e+01  # H1 c2c1im+
     51       3    7   0.130000 -1.242900e+01 -9.689121e+00 -1.327253e+01  # H1 c2c1im+
     52       3    8  -0.050000 -9.963947e+00 -9.320562e+00 -7.979449e+00  # CE c2c1im+
     53       3    7   0.130000 -1.145088e+01 -7.881611e+00 -7.413834e+00  # H1 c2c1im+
     54       3    7   0.130000 -1.199615e+01 -9.574107e+00 -7.341222e+00  # H1 c2c1im+
     55       3    9   0.060000 -9.559403e+00 -9.407632e+00 -6.971053e+00  # HC c2c1im+
     56       3    9   0.060000 -9.920272e+00 -1.029145e+01 -8.472980e+00  # HC c2c1im+
     57       3    9   0.060000 -9.374999e+00 -8.598952e+00 -8.545592e+00  # HC c2c1im+
     58       4    1   0.150000  1.455782e+01  3.597542e+00 -2.190521e+01  # NA c2c1im+
     59       4    2  -0.110000  1.497138e+01  4.693449e+00 -2.250286e+01  # CR c2c1im+
     60       4    1   0.150000  1.395229e+01  5.306481e+00 -2.306401e+01  # NA c2c1im+
     61       4    3  -0.130000  1.281859e+01  4.564124e+00 -2.281401e+01  # CW c2c1im+
     62       4    3  -0.130000  1.319597e+01  3.499081e+00 -2.209182e+01  # CW c2c1im+
     63       4    4  -0.170000  1.538944e+01  2.641719e+00 -2.116766e+01  # C1 c2c1im+
     64       4    5   0.210000  1.599451e+01  5.038299e+00 -2.252893e+01  # HCR c2c1im+
     65       4    4  -0.170000  1.400426e+01  6.559291e+00 -2.382356e+01  # C1 c2c1im+
     66       4    6   0.210000  1.181504e+01  4.796343e+00 -2.313859e+01  # HCW c2c1im+
     67       4    6   0.210000  1.255355e+01  2.712084e+00 -2.172529e+01  # HCW c2c1im+
     68       4    7   0.130000  1.531606e+01  1.659526e+00 -2.163458e+01  # H1 c2c1im+
     69       4    7   0.130000  1.642731e+01  2.974383e+00 -2.118358e+01  # H1 c2c1im+
     70       4    7   0.130000  1.504415e+01  2.579565e+00 -2.013567e+01  # H1 c2c1im+
     71       4    8  -0.050000  1.543733e+01  7.063538e+00 -2.387311e+01  # CE c2c1im+
     72       4    7   0.130000  1.364573e+01  6.384879e+00 -2.483803e+01  # H1 c2c1im+
     73       4    7   0.130000  1.337382e+01  7.304918e+00 -2.333911e+01  # H1 c2c1im+
     74       4    9   0.060000  1.547597e+01  7.995027e+00 -2.443785e+01  # HC c2c1im+
     75       4    9   0.060000  1.579661e+01  7.238868e+00 -2.285907e+01  # HC c2c1im+
     76       4    9   0.060000  1.606852e+01  6.318829e+00 -2.435798e+01  # HC c2c1im+
     77       5    1   0.150000  1.613457e+01  2.844618e+00 -1.423045e+01  # NA c2c1im+
     78       5    2  -0.110000  1.606201e+01  3.502216e+00 -1.536690e+01  # CR c2c1im+
     79       5    1   0.150000  1.683907e+01  2.932340e+00 -1.626169e+01  # NA c2c1im+
     80       5    3  -0.130000  1.744637e+01  1.846771e+00 -1.566872e+01  # CW c2c1im+
     81       5    3  -0.130000  1.700731e+01  1.792101e+00 -1.440281e+01  # CW c2c1im+
     82       5    4  -0.170000  1.541821e+01  3.165223e+00 -1.299222e+01  # C1 c2c1im+
     83       5    5   0.210000  1.545525e+01  4.378831e+00 -1.553948e+01  # HCR c2c1im+
     84       5    4  -0.170000  1.703127e+01  3.368521e+00 -1.764804e+01  # C1 c2c1im+
     85       5    6   0.210000  1.814451e+01  1.167802e+00 -1.613562e+01  # HCW c2c1im+
     86       5    6   0.210000  1.728530e+01  1.060814e+00 -1.365827e+01  # HCW c2c1im+
     87       5    7   0.130000  1.613683e+01  3.361157e+00 -1.219642e+01  # H1 c2c1im+
     88       5    7   0.130000  1.479961e+01  4.049029e+00 -1.314816e+01  # H1 c2c1im+
     89       5    7   0.130000  1.478481e+01  2.324197e+00 -1.271013e+01  # H1 c2c1im+
     90       5    8  -0.050000  1.618523e+01  4.603097e+00 -1.791344e+01  # CE c2c1im+
     91       5    7   0.130000  1.808219e+01  3.606726e+00 -1.781214e+01  # H1 c2c1im+
     92       5    7   0.130000  1.673017e+01  2.569767e+00 -1.832585e+01  # H1 c2c1im+
     93       5    9   0.060000  1.632814e+01  4.927406e+00 -1.894422e+01  # HC c2c1im+
     94       5    9   0.060000  1.513399e+01  4.365751e+00 -1.775020e+01  # HC c2c1im+
     95       5    9   0.060000  1.648601e+01  5.402711e+00 -1.723650e+01  # HC c2c1im+
     96       6    1   0.150000  1.509955e+01  4.569082e+00 -8.749000e-03  # NA c2c1im+
     97       6    2  -0.110000  1.546387e+01  4.532679e+00  1.254253e+00  # CR c2c1im+
     98       6    1   0.150000  1.626952e+01  3.513200e+00  1.456257e+00  # NA c2c1im+
     99       6    3  -0.130000  1.643359e+01  2.855835e+00  2.563250e-01  # CW c2c1im+
    100       6    3  -0.130000  1.570444e+01  3.513880e+00 -6.566940e-01  # CW c2c1im+
    101       6    4  -0.170000  1.420791e+01  5.553515e+00 -6.292560e-01  # C1 c2c1im+
    102       6    5   0.210000  1.514868e+01  5.234754e+00  2.011978e+00  # HCR c2c1im+
    103       6    4  -0.170000  1.688854e+01  3.135359e+00  2.730311e+00  # C1 c2c1im+
    104       6    6   0.210000  1.703601e+01  1.976237e+00  8.369700e-02  # HCW c2c1im+
    105       6    6   0.210000  1.560909e+01  3.264014e+00 -1.703056e+00  # HCW c2c1im+
    106       6    7   0.130000  1.334006e+01  5.044782e+00 -1.048916e+00  # H1 c2c1im+
    107       6    7   0.130000  1.387936e+01  6.271448e+00  1.222280e-01  # H1 c2c1im+
    108       6    7   0.130000  1.474043e+01  6.077300e+00 -1.423094e+00  # H1 c2c1im+
    109       6    8  -0.050000  1.645797e+01  4.111627e+00  3.812862e+00  # CE c2c1im+
    110       6    7   0.130000  1.657318e+01  2.128391e+00  3.003563e+00  # H1 c2c1im+
    111       6    7   0.130000  1.797355e+01  3.160909e+00  2.629386e+00  # H1 c2c1im+
    112       6    9   0.060000  1.691822e+01  3.830695e+00  4.760146e+00  # HC c2c1im+
    113       6    9   0.060000  1.677343e+01  5.118893e+00  3.540834e+00  # HC c2c1im+
    114       6    9   0.060000  1.537306e+01  4.086374e+00  3.915011e+00  # HC c2c1im+
    115       7    1   0.150000  1.288256e+00  2.531755e+00 -1.301625e+01  # NA c2c1im+
    116       7    2  -0.110000  2.557948e+00  2.204727e+00 -1.291545e+01  # CR c2c1im+
    117       7    1   0.150000  3.234940e+00  2.735431e+00 -1.391006e+01  # NA c2c1im+
    118       7    3  -0.130000  2.352164e+00  3.444107e+00 -1.469579e+01  # CW c2c1im+
    119       7    3  -0.130000  1.138955e+00  3.317172e+00 -1.413875e+01  # CW c2c1im+
    120       7    4  -0.170000  2.125690e-01  2.136508e+00 -1.210201e+01  # C1 c2c1im+
    121       7    5   0.210000  2.981230e+00  1.592167e+00 -1.213314e+01  # HCR c2c1im+
    122       7    4  -0.170000  4.675227e+00  2.601738e+00 -1.414851e+01  # C1 c2c1im+
    123       7    6   0.210000  2.592190e+00  3.997571e+00 -1.559159e+01  # HCW c2c1im+
    124       7    6   0.210000  2.179720e-01  3.749163e+00 -1.450148e+01  # HCW c2c1im+
    125       7    7   0.130000 -5.413700e-01  1.571348e+00 -1.264998e+01  # H1 c2c1im+
    126       7    7   0.130000  6.222480e-01  1.516547e+00 -1.130457e+01  # H1 c2c1im+
    127       7    7   0.130000 -2.441020e-01  3.027336e+00 -1.167076e+01  # H1 c2c1im+
    128       7    8  -0.050000  5.292484e+00  1.741984e+00 -1.305754e+01  # CE c2c1im+
    129       7    7   0.130000  4.841475e+00  2.132239e+00 -1.511806e+01  # H1 c2c1im+
    130       7    7   0.130000  5.138742e+00  3.588226e+00 -1.413884e+01  # H1 c2c1im+
    131       7    9   0.060000  6.363365e+00  1.642580e+00 -1.323483e+01  # HC c2c1im+
    132       7    9   0.060000  5.127310e+00  2.210974e+00 -1.208756e+01  # HC c2c1im+
    133       7    9   0.060000  4.830043e+00  7.549870e-01 -1.306678e+01  # HC c2c1im+
    134       8    1   0.150000  2.262523e+00  1.534310e+01 -2.099631e+00  # NA c2c1im+
    135       8    2  -0.110000  3.455228e+00  1.482048e+01 -1.916498e+00  # CR c2c1im+
    136       8    1   0.150000  3.502772e+00  1.362048e+01 -2.452198e+00  # NA c2c1im+
    137       8    3  -0.130000  2.271864e+00  1.335492e+01 -3.011865e+00  # CW c2c1im+
    138       8    3  -0.130000  1.498918e+00  1.442849e+01 -2.792139e+00  # CW c2c1im+
    139       8    4  -0.170000  1.813113e+00  1.666439e+01 -1.650870e+00  # C1 c2c1im+
    140       8    5   0.210000  4.273058e+00  1.530422e+01 -1.403134e+00  # HCR c2c1im+
    141       8    4  -0.170000  4.657718e+00  1.271758e+01 -2.457595e+00  # C1 c2c1im+
    142       8    6   0.210000  1.983866e+00  1.245212e+01 -3.529938e+00  # HCW c2c1im+
    143       8    6   0.210000  4.712310e-01  1.455307e+01 -3.099940e+00  # HCW c2c1im+
    144       8    7   0.130000  9.654180e-01  1.655029e+01 -9.752270e-01  # H1 c2c1im+
    145       8    7   0.130000  2.627265e+00  1.716799e+01 -1.129673e+00  # H1 c2c1im+
    146       8    7   0.130000  1.512037e+00  1.725869e+01 -2.513574e+00  # H1 c2c1im+
    147       8    8  -0.050000  5.822357e+00  1.337922e+01 -1.739085e+00  # CE c2c1im+
    148       8    7   0.130000  4.396797e+00  1.179001e+01 -1.948055e+00  # H1 c2c1im+
    149       8    7   0.130000  4.943416e+00  1.249841e+01 -3.486402e+00  # H1 c2c1im+
    150       8    9   0.060000  6.681082e+00  1.270789e+01 -1.743098e+00  # HC c2c1im+
    151       8    9   0.060000  6.084482e+00  1.430665e+01 -2.248262e+00  # HC c2c1im+
    152       8    9   0.060000  5.537863e+00  1.359824e+01 -7.099150e-01  # HC c2c1im+
    153       9    1   0.150000  1.179109e+01 -1.254984e+01  2.938035e+01  # NA c2c1im+
    154       9    2  -0.110000  1.193616e+01 -1.230638e+01  2.809625e+01  # CR c2c1im+
    155       9    1   0.150000  1.287184e+01 -1.308465e+01  2.759824e+01  # NA c2c1im+
    156       9    3  -0.130000  1.335690e+01 -1.387380e+01  2.861845e+01  # CW c2c1im+
    157       9    3  -0.130000  1.268335e+01 -1.354050e+01  2.972910e+01  # CW c2c1im+
    158       9    4  -0.170000  1.084974e+01 -1.189022e+01  3.029025e+01  # C1 c2c1im+
    159       9    5   0.210000  1.137153e+01 -1.157670e+01  2.753486e+01  # HCR c2c1im+
    160       9    4  -0.170000  1.332525e+01 -1.311407e+01  2.620443e+01  # C1 c2c1im+
    161       9    6   0.210000  1.413336e+01 -1.462022e+01  2.853860e+01  # HCW c2c1im+
    162       9    6   0.210000  1.281524e+01 -1.396796e+01  3.071210e+01  # HCW c2c1im+
    163       9    7   0.130000  1.140189e+01 -1.139760e+01  3.109059e+01  # H1 c2c1im+
    164       9    7   0.130000  1.027028e+01 -1.114910e+01  2.973973e+01  # H1 c2c1im+
    165       9    7   0.130000  1.017613e+01 -1.263282e+01  3.071792e+01  # H1 c2c1im+
    166       9    8  -0.050000  1.254268e+01 -1.209317e+01  2.539464e+01  # CE c2c1im+
    167       9    7   0.130000  1.438753e+01 -1.287346e+01  2.616222e+01  # H1 c2c1im+
    168       9    7   0.130000  1.316176e+01 -1.410867e+01  2.578954e+01  # H1 c2c1im+
    169       9    9   0.060000  1.287980e+01 -1.211505e+01  2.435832e+01  # HC c2c1im+
    170       9    9   0.060000  1.148025e+01 -1.233328e+01  2.543571e+01  # HC c2c1im+
    171       9    9   0.060000  1.270601e+01 -1.109806e+01  2.580838e+01  # HC c2c1im+
    172      10    1   0.150000 -1.434867e+01  1.447637e+01 -1.123588e+01  # NA c2c1im+
    173      10    2  -0.110000 -1.370515e+01  1.481285e+01 -1.013957e+01  # CR c2c1im+
    174      10    1   0.150000 -1.404085e+01  1.603319e+01 -9.782771e+00  # NA c2c1im+
    175      10    3  -0.130000 -1.495164e+01  1.650982e+01 -1.070047e+01  # CW c2c1im+
    176      10    3  -0.130000 -1.514348e+01  1.553958e+01 -1.160607e+01  # CW c2c1im+
    177      10    4  -0.170000 -1.424659e+01  1.319875e+01 -1.194751e+01  # C1 c2c1im+
    178      10    5   0.210000 -1.300584e+01  1.418163e+01 -9.611439e+00  # HCR c2c1im+
    179      10    4  -0.170000 -1.353931e+01  1.676517e+01 -8.615803e+00  # C1 c2c1im+
    180      10    6   0.210000 -1.542236e+01  1.748180e+01 -1.069196e+01  # HCW c2c1im+
    181      10    6   0.210000 -1.579778e+01  1.558307e+01 -1.246421e+01  # HCW c2c1im+
    182      10    7   0.130000 -1.389400e+01  1.337543e+01 -1.296367e+01  # H1 c2c1im+
    183      10    7   0.130000 -1.354367e+01  1.254783e+01 -1.142761e+01  # H1 c2c1im+
    184      10    7   0.130000 -1.522608e+01  1.272172e+01 -1.198113e+01  # H1 c2c1im+
    185      10    8  -0.050000 -1.255179e+01  1.589418e+01 -7.856477e+00  # CE c2c1im+
    186      10    7   0.130000 -1.304063e+01  1.767684e+01 -8.944883e+00  # H1 c2c1im+
    187      10    7   0.130000 -1.437270e+01  1.702313e+01 -7.962344e+00  # H1 c2c1im+
    188      10    9   0.060000 -1.217889e+01  1.643842e+01 -6.988814e+00  # HC c2c1im+
    189      10    9   0.060000 -1.304970e+01  1.498246e+01 -7.526394e+00  # HC c2c1im+
    190      10    9   0.060000 -1.171763e+01  1.563616e+01 -8.508933e+00  # HC c2c1im+
    191      11    1   0.150000 -1.683377e+01  1.588213e+01 -2.207244e+01  # NA c2c1im+
    192      11    2  -0.110000 -1.682141e+01  1.632836e+01 -2.330935e+01  # CR c2c1im+
    193      11    1   0.150000 -1.710409e+01  1.534832e+01 -2.413931e+01  # NA c2c1im+
    194      11    3  -0.130000 -1.731014e+01  1.420664e+01 -2.339567e+01  # CW c2c1im+
    195      11    3  -0.130000 -1.714168e+01  1.453932e+01 -2.210756e+01  # CW c2c1im+
    196      11    4  -0.170000 -1.656842e+01  1.666545e+01 -2.086200e+01  # C1 c2c1im+
    197      11    5   0.210000 -1.661071e+01  1.734696e+01 -2.359998e+01  # HCR c2c1im+
    198      11    4  -0.170000 -1.718741e+01  1.544463e+01 -2.559976e+01  # C1 c2c1im+
    199      11    6   0.210000 -1.756023e+01  1.322812e+01 -2.377824e+01  # HCW c2c1im+
    200      11    6   0.210000 -1.723055e+01  1.387917e+01 -2.125744e+01  # HCW c2c1im+
    201      11    7   0.130000 -1.571162e+01  1.624391e+01 -2.033636e+01  # H1 c2c1im+
    202      11    7   0.130000 -1.635338e+01  1.769810e+01 -2.113675e+01  # H1 c2c1im+
    203      11    7   0.130000 -1.744270e+01  1.663758e+01 -2.021164e+01  # H1 c2c1im+
    204      11    8  -0.050000 -1.689390e+01  1.687211e+01 -2.603168e+01  # CE c2c1im+
    205      11    7   0.130000 -1.645813e+01  1.477182e+01 -2.605097e+01  # H1 c2c1im+
    206      11    7   0.130000 -1.818920e+01  1.516549e+01 -2.592625e+01  # H1 c2c1im+
    207      11    9   0.060000 -1.695585e+01  1.694372e+01 -2.711756e+01  # HC c2c1im+
    208      11    9   0.060000 -1.762307e+01  1.754569e+01 -2.558147e+01  # HC c2c1im+
    209      11    9   0.060000 -1.589200e+01  1.715202e+01 -2.570619e+01  # HC c2c1im+
    210      12    1   0.150000 -2.379451e+00  1.223260e+01 -1.589727e+00  # NA c2c1im+
    211      12    2  -0.110000 -1.978230e+00  1.101075e+01 -1.864217e+00  # CR c2c1im+
    212      12    1   0.150000 -3.009101e+00  1.026990e+01 -2.207247e+00  # NA c2c1im+
    213      12    3  -0.130000 -4.137792e+00  1.105841e+01 -2.150657e+00  # CW c2c1im+
    214      12    3  -0.130000 -3.745383e+00  1.228159e+01 -1.765807e+00  # CW c2c1im+
    215      12    4  -0.170000 -1.532417e+00  1.335296e+01 -1.169645e+00  # C1 c2c1im+
    216      12    5   0.210000 -9.554840e-01  1.066725e+01 -1.815268e+00  # HCR c2c1im+
    217      12    4  -0.170000 -2.972877e+00  8.853818e+00 -2.584803e+00  # C1 c2c1im+
    218      12    6   0.210000 -5.148226e+00  1.074944e+01 -2.374176e+00  # HCW c2c1im+
    219      12    6   0.210000 -4.380291e+00  1.314318e+01 -1.621035e+00  # HCW c2c1im+
    220      12    7   0.130000 -1.853935e+00  1.370455e+01 -1.892810e-01  # H1 c2c1im+
    221      12    7   0.130000 -4.947180e-01  1.302393e+01 -1.114713e+00  # H1 c2c1im+
    222      12    7   0.130000 -1.617917e+00  1.416461e+01 -1.892156e+00  # H1 c2c1im+
    223      12    8  -0.050000 -1.540622e+00  8.348646e+00 -2.522773e+00  # CE c2c1im+
    224      12    7   0.130000 -3.590939e+00  8.277729e+00 -1.896166e+00  # H1 c2c1im+
    225      12    7   0.130000 -3.354921e+00  8.737786e+00 -3.599041e+00  # H1 c2c1im+
    226      12    9   0.060000 -1.513689e+00  7.295760e+00 -2.803493e+00  # HC c2c1im+
    227      12    9   0.060000 -9.218120e-01  8.923730e+00 -3.211577e+00  # HC c2c1im+
    228      12    9   0.060000 -1.157830e+00  8.463673e+00 -1.508702e+00  # HC c2c1im+
    229      13    1   0.150000 -1.167700e+01  2.508981e+00  2.848273e+00  # NA c2c1im+
    230      13    2  -0.110000 -1.204748e+01  3.098962e+00  3.963571e+00  # CR c2c1im+
    231      13    1   0.150000 -1.253633e+01  4.290099e+00  3.696282e+00  # NA c2c1im+
    232      13    3  -0.130000 -1.247760e+01  4.478269e+00  2.332455e+00  # CW c2c1im+
    233      13    3  -0.130000 -1.194205e+01  3.368243e+00  1.803959e+00  # CW c2c1im+
    234      13    4  -0.170000 -1.108535e+01  1.173321e+00  2.725289e+00  # C1 c2c1im+
    235      13    5   0.210000 -1.196295e+01  2.669640e+00  4.950960e+00  # HCR c2c1im+
    236      13    4  -0.170000 -1.305463e+01  5.254335e+00  4.671361e+00  # C1 c2c1im+
    237      13    6   0.210000 -1.280185e+01  5.354737e+00  1.791100e+00  # HCW c2c1im+
    238      13    6   0.210000 -1.175379e+01  3.182446e+00  7.568500e-01  # HCW c2c1im+
    239      13    7   0.130000 -1.009879e+01  1.253013e+00  2.268733e+00  # H1 c2c1im+
    240      13    7   0.130000 -1.099235e+01  7.241210e-01  3.714061e+00  # H1 c2c1im+
    241      13    7   0.130000 -1.172440e+01  5.483290e-01  2.101504e+00  # H1 c2c1im+
    242      13    8  -0.050000 -1.294521e+01  4.669941e+00  6.070258e+00  # CE c2c1im+
    243      13    7   0.130000 -1.247401e+01  6.175185e+00  4.616407e+00  # H1 c2c1im+
    244      13    7   0.130000 -1.409962e+01  5.470501e+00  4.449179e+00  # H1 c2c1im+
    245      13    9   0.060000 -1.333057e+01  5.386869e+00  6.795247e+00  # HC c2c1im+
    246      13    9   0.060000 -1.352604e+01  3.749302e+00  6.126438e+00  # HC c2c1im+
    247      13    9   0.060000 -1.190043e+01  4.453986e+00  6.293667e+00  # HC c2c1im+
    248      14    1   0.150000  2.292030e-01  1.533030e+01 -5.844523e+00  # NA c2c1im+
    249      14    2  -0.110000 -1.456520e-01  1.412618e+01 -5.471957e+00  # CR c2c1im+
    250      14    1   0.150000 -1.442932e+00  1.410996e+01 -5.257420e+00  # NA c2c1im+
    251      14    3  -0.130000 -1.931428e+00  1.537434e+01 -5.505609e+00  # CW c2c1im+
    252      14    3  -0.130000 -8.893220e-01  1.613488e+01 -5.871502e+00  # CW c2c1im+
    253      14    4  -0.170000  1.593191e+00  1.575371e+01 -6.175311e+00  # C1 c2c1im+
    254      14    5   0.210000  5.131070e-01  1.327783e+01 -5.359099e+00  # HCR c2c1im+
    255      14    4  -0.170000 -2.237458e+00  1.295465e+01 -4.829451e+00  # C1 c2c1im+
    256      14    6   0.210000 -2.959952e+00  1.569282e+01 -5.421314e+00  # HCW c2c1im+
    257      14    6   0.210000 -9.205780e-01  1.718117e+01 -6.137357e+00  # HCW c2c1im+
    258      14    7   0.130000  1.899090e+00  1.655425e+01 -5.501774e+00  # H1 c2c1im+
    259      14    7   0.130000  2.272940e+00  1.490858e+01 -6.066690e+00  # H1 c2c1im+
    260      14    7   0.130000  1.623135e+00  1.611355e+01 -7.203764e+00  # H1 c2c1im+
    261      14    8  -0.050000 -1.328983e+00  1.174728e+01 -4.664119e+00  # CE c2c1im+
    262      14    7   0.130000 -2.721008e+00  1.317780e+01 -3.878408e+00  # H1 c2c1im+
    263      14    7   0.130000 -2.996963e+00  1.273710e+01 -5.580398e+00  # H1 c2c1im+
    264      14    9   0.060000 -1.919728e+00  1.088829e+01 -4.345915e+00  # HC c2c1im+
    265      14    9   0.060000 -8.453890e-01  1.152291e+01 -5.614851e+00  # HC c2c1im+
    266      14    9   0.060000 -5.694330e-01  1.196361e+01 -3.912861e+00  # HC c2c1im+
    267      15    1   0.150000 -1.200326e+01 -1.283971e+01  7.551927e+00  # NA c2c1im+
    268      15    2  -0.110000 -1.149633e+01 -1.165481e+01  7.290699e+00  # CR c2c1im+
    269      15    1   0.150000 -1.021114e+01 -1.164893e+01  7.569037e+00  # NA c2c1im+
    270      15    3  -0.130000 -9.870796e+00 -1.290003e+01  8.035742e+00  # CW c2c1im+
    271      15    3  -0.130000 -1.098768e+01 -1.364214e+01  8.025079e+00  # CW c2c1im+
    272      15    4  -0.170000 -1.340047e+01 -1.324675e+01  7.375026e+00  # C1 c2c1im+
    273      15    5   0.210000 -1.205213e+01 -1.081279e+01  6.905361e+00  # HCR c2c1im+
    274      15    4  -0.170000 -9.294559e+00 -1.051546e+01  7.413250e+00  # C1 c2c1im+
    275      15    6   0.210000 -8.889307e+00 -1.322224e+01  8.350800e+00  # HCW c2c1im+
    276      15    6   0.210000 -1.107502e+01 -1.467454e+01  8.329933e+00  # HCW c2c1im+
    277      15    7   0.130000 -1.381338e+01 -1.355700e+01  8.334894e+00  # H1 c2c1im+
    278      15    7   0.130000 -1.397740e+01 -1.240774e+01  6.986028e+00  # H1 c2c1im+
    279      15    7   0.130000 -1.345095e+01 -1.407857e+01  6.672439e+00  # H1 c2c1im+
    280      15    8  -0.050000 -1.005682e+01 -9.317325e+00  6.871180e+00  # CE c2c1im+
    281      15    7   0.130000 -8.861230e+00 -1.026229e+01  8.380841e+00  # H1 c2c1im+
    282      15    7   0.130000 -8.498804e+00 -1.078385e+01  6.718386e+00  # H1 c2c1im+
    283      15    9   0.060000 -9.375323e+00 -8.474564e+00  6.755350e+00  # HC c2c1im+
    284      15    9   0.060000 -1.049005e+01 -9.569285e+00  5.903231e+00  # HC c2c1im+
    285      15    9   0.060000 -1.085248e+01 -9.047720e+00  7.565686e+00  # HC c2c1im+
    286      16    1   0.150000  8.941523e+00 -1.922133e+00  3.312148e+01  # NA c2c1im+
    287      16    2  -0.110000  9.105950e+00 -6.742100e-01  3.350211e+01  # CR c2c1im+
    288      16    1   0.150000  8.170990e+00  8.108100e-02  3.296862e+01  # NA c2c1im+
    289      16    3  -0.130000  7.358593e+00 -7.251890e-01  3.220127e+01  # CW c2c1im+
    290      16    3  -0.130000  7.838804e+00 -1.973630e+00  3.229654e+01  # CW c2c1im+
    291      16    4  -0.170000  9.777326e+00 -3.065106e+00  3.350123e+01  # C1 c2c1im+
    292      16    5   0.210000  9.891090e+00 -3.223910e-01  3.415494e+01  # HCR c2c1im+
    293      16    4  -0.170000  8.013370e+00  1.526930e+00  3.315256e+01  # C1 c2c1im+
    294      16    6   0.210000  6.497272e+00 -4.108220e-01  3.163057e+01  # HCW c2c1im+
    295      16    6   0.210000  7.437031e+00 -2.853986e+00  3.181701e+01  # HCW c2c1im+
    296      16    7   0.130000  1.021022e+01 -3.512495e+00  3.260650e+01  # H1 c2c1im+
    297      16    7   0.130000  1.057652e+01 -2.728047e+00  3.416137e+01  # H1 c2c1im+
    298      16    7   0.130000  9.167552e+00 -3.805804e+00  3.401857e+01  # H1 c2c1im+