created by fftool

8030 atoms
5888 bonds
9984 angles
11776 dihedrals
15 atom types
9 bond types
13 angle types
20 dihedral types
  -18.517606660    17.699648338 xlo xhi
   -19.567289658    18.632104154 ylo yhi
   -38.368096602    39.792811655 zlo zhi

Masses

   1   14.007  # NA
   2   12.011  # CR
   3   12.011  # CW
   4   12.011  # C1
   5    1.008  # HCR
   6    1.008  # HCW
   7    1.008  # H1
   8   12.011  # CE
   9    1.008  # HC
  10   10.811  # B
  11   18.998  # FB
  15   12.011  #C
  16   15.999  #O
  17   14.0067 #N 
  18   1.008   #H

Bond Coeffs

   1   477.055449     1.315000  # CR-NA
   2   427.103250     1.378000  # CW-NA
   3   520.076482     1.341000  # CW-CW
   4   336.998088     1.466000  # NA-CT
   5   339.985660     1.080000  # CR-HA
   6   339.985660     1.080000  # CW-HA
   7   339.985660     1.090000  # HC-CT
   8   267.925430     1.529000  # CT-CT
   9   386.591778     1.394000  # B-F

Angle Coeffs

   1    70.004780   126.400000  # CR-NA-CT
   2    70.004780   108.000000  # CW-NA-CR
   3    70.004780   125.600000  # CW-NA-CT
   4    70.004780   109.800000  # NA-CR-NA
   5    35.002390   125.100000  # NA-CR-HA
   6    70.004780   107.100000  # NA-CW-CW
   7    35.002390   122.000000  # NA-CW-HA
   8    35.002390   130.900000  # CW-CW-HA
   9    37.500000   110.700000  # NA-CT-HC
  10    32.994742   107.800000  # HC-CT-HC
  11    58.353250   112.700000  # NA-CT-CT
  12    37.500000   110.700000  # CT-CT-HC
  13    80.007170   109.500000  # F-B-F

Dihedral Coeffs

   1     0.000000     4.651052     0.000000     0.000000  # CT-NA-CR-NA
   2     0.000000     4.651052     0.000000     0.000000  # CW-NA-CR-NA
   3     0.000000     4.651052     0.000000     0.000000  # CT-NA-CR-HA
   4     0.000000     4.651052     0.000000     0.000000  # CW-NA-CR-HA
   5     0.000000     3.000000     0.000000     0.000000  # CR-NA-CW-CW
   6     0.000000     3.000000     0.000000     0.000000  # CT-NA-CW-CW
   7     0.000000     3.000000     0.000000     0.000000  # CR-NA-CW-HA
   8     0.000000     3.000000     0.000000     0.000000  # CT-NA-CW-HA
   9     0.000000    10.750478     0.000000     0.000000  # NA-CW-CW-HA
  10     0.000000    10.750478     0.000000     0.000000  # HA-CW-CW-HA
  11     0.000000    10.750478     0.000000     0.000000  # NA-CW-CW-NA
  12     0.000000     0.000000     0.000000     0.000000  # CR-NA-CT-HC
  13     0.000000     0.000000     0.124044     0.000000  # CW-NA-CT-HC
  14    -1.259345     0.000000     0.000000     0.000000  # CR-NA-CT-CT
  15    -1.709728     1.459465     0.189747     0.000000  # CW-NA-CT-CT
  16     0.000000     0.000000     0.087715     0.000000  # NA-CT-CT-HC
  17     0.000000     0.000000     0.300000     0.000000  # HC-CT-CT-HC
  18     0.000000     2.000000     0.000000     0.000000  # CR-CW-NA-CT
  19     0.000000     2.200000     0.000000     0.000000  # NA-NA-CR-HA
  20     0.000000     2.200000     0.000000     0.000000  # NA-CW-CW-HA

Atoms

      1       1    1   0.150000 -1.429617e+01  4.049299e+00 -2.842929e+01  # NA c2c1im+
      2       1    2  -0.110000 -1.404689e+01  4.173789e+00 -2.714415e+01  # CR c2c1im+
      3       1    1   0.150000 -1.429072e+01  3.036387e+00 -2.653089e+01  # NA c2c1im+
      4       1    3  -0.130000 -1.472120e+01  2.128100e+00 -2.747354e+01  # CW c2c1im+
      5       1    3  -0.130000 -1.472459e+01  2.759365e+00 -2.865666e+01  # CW c2c1im+
      6       1    4  -0.170000 -1.414812e+01  5.091666e+00 -2.944945e+01  # C1 c2c1im+
      7       1    5   0.210000 -1.369474e+01  5.074985e+00 -2.666432e+01  # HCR c2c1im+
      8       1    4  -0.170000 -1.413473e+01  2.772503e+00 -2.509730e+01  # C1 c2c1im+
      9       1    6   0.210000 -1.500284e+01  1.101149e+00 -2.729340e+01  # HCW c2c1im+
     10       1    6   0.210000 -1.500948e+01  2.336519e+00 -2.960873e+01  # HCW c2c1im+
     11       1    7   0.130000 -1.511185e+01  5.275468e+00 -2.992437e+01  # H1 c2c1im+
     12       1    7   0.130000 -1.379281e+01  6.010146e+00 -2.898227e+01  # H1 c2c1im+
     13       1    7   0.130000 -1.342947e+01  4.765507e+00 -3.020129e+01  # H1 c2c1im+
     14       1    8  -0.050000 -1.363912e+01  4.029456e+00 -2.440100e+01  # CE c2c1im+
     15       1    7   0.130000 -1.509556e+01  2.478560e+00 -2.467479e+01  # H1 c2c1im+
     16       1    7   0.130000 -1.341318e+01  1.968598e+00 -2.495171e+01  # H1 c2c1im+
     17       1    9   0.060000 -1.352314e+01  3.833253e+00 -2.333509e+01  # HC c2c1im+
     18       1    9   0.060000 -1.267796e+01  4.323901e+00 -2.482240e+01  # HC c2c1im+
     19       1    9   0.060000 -1.436033e+01  4.833862e+00 -2.454548e+01  # HC c2c1im+
     20       2    1   0.150000 -1.396729e+01  1.149057e+00  2.222554e+01  # NA c2c1im+
     21       2    2  -0.110000 -1.411218e+01  2.042054e+00  2.127118e+01  # CR c2c1im+
     22       2    1   0.150000 -1.349488e+01  1.635728e+00  2.018350e+01  # NA c2c1im+
     23       2    3  -0.130000 -1.292003e+01  4.124600e-01  2.045190e+01  # CW c2c1im+
     24       2    3  -0.130000 -1.321444e+01  1.091570e-01  2.172454e+01  # CW c2c1im+
     25       2    4  -0.170000 -1.450681e+01  1.233962e+00  2.358600e+01  # C1 c2c1im+
     26       2    5   0.210000 -1.465650e+01  2.969980e+00  2.136641e+01  # HCR c2c1im+
     27       2    4  -0.170000 -1.342550e+01  2.351737e+00  1.890612e+01  # C1 c2c1im+
     28       2    6   0.210000 -1.234131e+01 -1.888150e-01  1.976636e+01  # HCW c2c1im+
     29       2    6   0.210000 -1.291747e+01 -7.823700e-01  2.225688e+01  # HCW c2c1im+
     30       2    7   0.130000 -1.368761e+01  1.207953e+00  2.430457e+01  # H1 c2c1im+
     31       2    7   0.130000 -1.506032e+01  2.165969e+00  2.370040e+01  # H1 c2c1im+
     32       2    7   0.130000 -1.517421e+01  3.911830e-01  2.376600e+01  # H1 c2c1im+
     33       2    8  -0.050000 -1.418625e+01  3.662945e+00  1.901747e+01  # CE c2c1im+
     34       2    7   0.130000 -1.238361e+01  2.556546e+00  1.865994e+01  # H1 c2c1im+
     35       2    7   0.130000 -1.387020e+01  1.739776e+00  1.812137e+01  # H1 c2c1im+
     36       2    9   0.060000 -1.413466e+01  4.195311e+00  1.806772e+01  # HC c2c1im+
     37       2    9   0.060000 -1.522849e+01  3.459182e+00  1.926304e+01  # HC c2c1im+
     38       2    9   0.060000 -1.374190e+01  4.275952e+00  1.980161e+01  # HC c2c1im+
     39       3    1   0.150000 -1.432206e+01 -1.366150e+01  2.215679e+01  # NA c2c1im+
     40       3    2  -0.110000 -1.400812e+01 -1.407537e+01  2.094874e+01  # CR c2c1im+
     41       3    1   0.150000 -1.434211e+01 -1.316162e+01  2.006402e+01  # NA c2c1im+
     42       3    3  -0.130000 -1.490263e+01 -1.209948e+01  2.073970e+01  # CW c2c1im+
     43       3    3  -0.130000 -1.489013e+01 -1.241101e+01  2.204395e+01  # CW c2c1im+
     44       3    4  -0.170000 -1.410995e+01 -1.439257e+01  2.340967e+01  # C1 c2c1im+
     45       3    5   0.210000 -1.354539e+01 -1.502352e+01  2.071784e+01  # HCR c2c1im+
     46       3    4  -0.170000 -1.415471e+01 -1.324934e+01  1.861269e+01  # C1 c2c1im+
     47       3    6   0.210000 -1.528081e+01 -1.118775e+01  2.030137e+01  # HCW c2c1im+
     48       3    6   0.210000 -1.525636e+01 -1.179741e+01  2.285375e+01  # HCW c2c1im+
     49       3    7   0.130000 -1.506851e+01 -1.455668e+01  2.390193e+01  # H1 c2c1im+
     50       3    7   0.130000 -1.364283e+01 -1.535382e+01  2.319542e+01  # H1 c2c1im+
     51       3    7   0.130000 -1.346057e+01 -1.381155e+01  2.406451e+01  # H1 c2c1im+
     52       3    8  -0.050000 -1.350377e+01 -1.457805e+01  1.826453e+01  # CE c2c1im+
     53       3    7   0.130000 -1.512232e+01 -1.317816e+01  1.811593e+01  # H1 c2c1im+
     54       3    7   0.130000 -1.351437e+01 -1.243302e+01  1.827850e+01  # H1 c2c1im+
     55       3    9   0.060000 -1.336444e+01 -1.464327e+01  1.718545e+01  # HC c2c1im+
     56       3    9   0.060000 -1.253574e+01 -1.464996e+01  1.876036e+01  # HC c2c1im+
     57       3    9   0.060000 -1.414368e+01 -1.539510e+01  1.859778e+01  # HC c2c1im+
     58       4    1   0.150000  2.030224e+00  1.426610e+01 -2.149837e+00  # NA c2c1im+
     59       4    2  -0.110000  2.056961e+00  1.411654e+01 -8.436440e-01  # CR c2c1im+
     60       4    1   0.150000  3.286172e+00  1.427088e+01 -4.026890e-01  # NA c2c1im+
     61       4    3  -0.130000  4.096945e+00  1.453467e+01 -1.485255e+00  # CW c2c1im+
     62       4    3  -0.130000  3.314215e+00  1.453169e+01 -2.574110e+00  # CW c2c1im+
     63       4    4  -0.170000  8.490800e-01  1.416960e+01 -3.012823e+00  # C1 c2c1im+
     64       4    5   0.210000  1.198200e+00  1.389950e+01 -2.257240e-01  # HCR c2c1im+
     65       4    4  -0.170000  3.725363e+00  1.418000e+01  9.930220e-01  # C1 c2c1im+
     66       4    6   0.210000  5.162237e+00  1.471067e+01 -1.461292e+00  # HCW c2c1im+
     67       4    6   0.210000  3.630455e+00  1.470484e+01 -3.592152e+00  # HCW c2c1im+
     68       4    7   0.130000  9.946010e-01  1.337154e+01 -3.740844e+00  # H1 c2c1im+
     69       4    7   0.130000 -2.875800e-02  1.395055e+01 -2.404946e+00  # H1 c2c1im+
     70       4    7   0.130000  7.019460e-01  1.511487e+01 -3.535237e+00  # H1 c2c1im+
     71       4    8  -0.050000  2.530821e+00  1.387463e+01  1.881966e+00  # CE c2c1im+
     72       4    7   0.130000  4.463502e+00  1.338399e+01  1.091092e+00  # H1 c2c1im+
     73       4    7   0.130000  4.170846e+00  1.512733e+01  1.296700e+00  # H1 c2c1im+
     74       4    9   0.060000  2.857368e+00  1.380706e+01  2.919704e+00  # HC c2c1im+
     75       4    9   0.060000  1.792306e+00  1.467044e+01  1.785086e+00  # HC c2c1im+
     76       4    9   0.060000  2.084961e+00  1.292710e+01  1.579478e+00  # HC c2c1im+
     77       5    1   0.150000 -1.210674e+01 -6.187913e+00  7.039975e+00  # NA c2c1im+
     78       5    2  -0.110000 -1.199201e+01 -4.890591e+00  6.858265e+00  # CR c2c1im+
     79       5    1   0.150000 -1.318532e+01 -4.348437e+00  6.751983e+00  # NA c2c1im+
     80       5    3  -0.130000 -1.412144e+01 -5.352525e+00  6.871908e+00  # CW c2c1im+
     81       5    3  -0.130000 -1.344924e+01 -6.498920e+00  7.051389e+00  # CW c2c1im+
     82       5    4  -0.170000 -1.100775e+01 -7.144389e+00  7.202878e+00  # C1 c2c1im+
     83       5    5   0.210000 -1.105786e+01 -4.351279e+00  6.804397e+00  # HCR c2c1im+
     84       5    4  -0.170000 -1.347734e+01 -2.927142e+00  6.542697e+00  # C1 c2c1im+
     85       5    6   0.210000 -1.519448e+01 -5.237799e+00  6.829359e+00  # HCW c2c1im+
     86       5    6   0.210000 -1.387902e+01 -7.481264e+00  7.180599e+00  # HCW c2c1im+
     87       5    7   0.130000 -1.105324e+01 -7.889595e+00  6.408714e+00  # H1 c2c1im+
     88       5    7   0.130000 -1.005542e+01 -6.616663e+00  7.151102e+00  # H1 c2c1im+
     89       5    7   0.130000 -1.109630e+01 -7.639076e+00  8.170113e+00  # H1 c2c1im+
     90       5    8  -0.050000 -1.217474e+01 -2.147794e+00  6.463697e+00  # CE c2c1im+
     91       5    7   0.130000 -1.403158e+01 -2.802707e+00  5.612409e+00  # H1 c2c1im+
     92       5    7   0.130000 -1.407464e+01 -2.552188e+00  7.373808e+00  # H1 c2c1im+
     93       5    9   0.060000 -1.239186e+01 -1.091033e+00  6.308089e+00  # HC c2c1im+
     94       5    9   0.060000 -1.161999e+01 -2.271081e+00  7.393834e+00  # HC c2c1im+
     95       5    9   0.060000 -1.157693e+01 -2.521600e+00  5.632435e+00  # HC c2c1im+
     96       6    1   0.150000 -7.706492e+00  1.323000e+01  3.115217e+00  # NA c2c1im+
     97       6    2  -0.110000 -7.069028e+00  1.212749e+01  2.787588e+00  # CR c2c1im+
     98       6    1   0.150000 -7.767970e+00  1.107974e+01  3.165624e+00  # NA c2c1im+
     99       6    3  -0.130000 -8.920315e+00  1.153233e+01  3.770721e+00  # CW c2c1im+
    100       6    3  -0.130000 -8.882000e+00  1.287242e+01  3.739307e+00  # CW c2c1im+
    101       6    4  -0.170000 -7.255997e+00  1.460258e+01  2.865746e+00  # C1 c2c1im+
    102       6    5   0.210000 -6.114619e+00  1.208839e+01  2.283628e+00  # HCR c2c1im+
    103       6    4  -0.170000 -7.394450e+00  9.674329e+00  2.979981e+00  # C1 c2c1im+
    104       6    6   0.210000 -9.706351e+00  1.092258e+01  4.191125e+00  # HCW c2c1im+
    105       6    6   0.210000 -9.631370e+00  1.354508e+01  4.129647e+00  # HCW c2c1im+
    106       6    7   0.130000 -7.154419e+00  1.513022e+01  3.814101e+00  # H1 c2c1im+
    107       6    7   0.130000 -6.292351e+00  1.458241e+01  2.356749e+00  # H1 c2c1im+
    108       6    7   0.130000 -7.985795e+00  1.511711e+01  2.240640e+00  # H1 c2c1im+
    109       6    8  -0.050000 -6.052055e+00  9.595445e+00  2.271351e+00  # CE c2c1im+
    110       6    7   0.130000 -7.321023e+00  9.185955e+00  3.951679e+00  # H1 c2c1im+
    111       6    7   0.130000 -8.152400e+00  9.172839e+00  2.378218e+00  # H1 c2c1im+
    112       6    9   0.060000 -5.774336e+00  8.550496e+00  2.133322e+00  # HC c2c1im+
    113       6    9   0.060000 -6.124601e+00  1.008304e+01  1.299194e+00  # HC c2c1im+
    114       6    9   0.060000 -5.293224e+00  1.009615e+01  2.872655e+00  # HC c2c1im+
    115       7    1   0.150000  8.714308e+00  7.831608e+00 -2.933030e+01  # NA c2c1im+
    116       7    2  -0.110000  8.335843e+00  6.590696e+00 -2.911553e+01  # CR c2c1im+
    117       7    1   0.150000  7.054855e+00  6.462919e+00 -2.938380e+01  # NA c2c1im+
    118       7    3  -0.130000  6.581304e+00  7.690121e+00 -2.979442e+01  # CW c2c1im+
    119       7    3  -0.130000  7.615506e+00  8.543113e+00 -2.976108e+01  # CW c2c1im+
    120       7    4  -0.170000  1.006398e+01  8.373854e+00 -2.914726e+01  # C1 c2c1im+
    121       7    5   0.210000  8.980389e+00  5.795737e+00 -2.877057e+01  # HCR c2c1im+
    122       7    4  -0.170000  6.262365e+00  5.234939e+00 -2.926899e+01  # C1 c2c1im+
    123       7    6   0.210000  5.567995e+00  7.921421e+00 -3.008786e+01  # HCW c2c1im+
    124       7    6   0.210000  7.591900e+00  9.590704e+00 -3.002261e+01  # HCW c2c1im+
    125       7    7   0.130000  1.003673e+01  9.176677e+00 -2.841049e+01  # H1 c2c1im+
    126       7    7   0.130000  1.072928e+01  7.583933e+00 -2.879868e+01  # H1 c2c1im+
    127       7    7   0.130000  1.043088e+01  8.764693e+00 -3.009633e+01  # H1 c2c1im+
    128       7    8  -0.050000  7.150980e+00  4.101060e+00 -2.878414e+01  # CE c2c1im+
    129       7    7   0.130000  5.451642e+00  5.390324e+00 -2.855718e+01  # H1 c2c1im+
    130       7    7   0.130000  5.845790e+00  4.978339e+00 -3.024301e+01  # H1 c2c1im+
    131       7    9   0.060000  6.561748e+00  3.188033e+00 -2.869878e+01  # HC c2c1im+
    132       7    9   0.060000  7.961737e+00  3.944449e+00 -2.949565e+01  # HC c2c1im+
    133       7    9   0.060000  7.567589e+00  4.356433e+00 -2.780981e+01  # HC c2c1im+
    134       8    1   0.150000  4.301310e-01 -3.853298e+00  2.032365e+01  # NA c2c1im+
    135       8    2  -0.110000  8.691210e-01 -4.873527e+00  1.961963e+01  # CR c2c1im+
    136       8    1   0.150000  3.820000e-02 -5.123332e+00  1.863150e+01  # NA c2c1im+
    137       8    3  -0.130000 -9.940050e-01 -4.213187e+00  1.870271e+01  # CW c2c1im+
    138       8    3  -0.130000 -7.497470e-01 -3.421678e+00  1.975729e+01  # CW c2c1im+
    139       8    4  -0.170000  1.073710e+00 -3.269461e+00  2.150437e+01  # C1 c2c1im+
    140       8    5   0.210000  1.776042e+00 -5.423734e+00  1.982252e+01  # HCR c2c1im+
    141       8    4  -0.170000  1.777790e-01 -6.181641e+00  1.762668e+01  # C1 c2c1im+
    142       8    6   0.210000 -1.840384e+00 -4.149340e+00  1.803490e+01  # HCW c2c1im+
    143       8    6   0.210000 -1.362378e+00 -2.600379e+00  2.009868e+01  # HCW c2c1im+
    144       8    7   0.130000  3.987960e-01 -3.337366e+00  2.235759e+01  # H1 c2c1im+
    145       8    7   0.130000  1.992399e+00 -3.813287e+00  2.172428e+01  # H1 c2c1im+
    146       8    7   0.130000  1.309129e+00 -2.223018e+00  2.131037e+01  # H1 c2c1im+
    147       8    8  -0.050000  1.449680e+00 -6.970003e+00  1.789343e+01  # CE c2c1im+
    148       8    7   0.130000 -6.814660e-01 -6.850142e+00  1.768057e+01  # H1 c2c1im+
    149       8    7   0.130000  2.288660e-01 -5.735794e+00  1.663335e+01  # H1 c2c1im+
    150       8    9   0.060000  1.553460e+00 -7.756876e+00  1.714633e+01  # HC c2c1im+
    151       8    9   0.060000  2.309648e+00 -6.302463e+00  1.783915e+01  # HC c2c1im+
    152       8    9   0.060000  1.399315e+00 -7.416811e+00  1.888637e+01  # HC c2c1im+
    153       9    1   0.150000 -1.603390e+00  7.280423e+00  2.557858e+01  # NA c2c1im+
    154       9    2  -0.110000 -8.579800e-01  6.985561e+00  2.662100e+01  # CR c2c1im+
    155       9    1   0.150000 -1.316290e+00  7.605841e+00  2.768610e+01  # NA c2c1im+
    156       9    3  -0.130000 -2.418714e+00  8.341592e+00  2.730898e+01  # CW c2c1im+
    157       9    3  -0.130000 -2.597640e+00  8.138785e+00  2.599554e+01  # CW c2c1im+
    158       9    4  -0.170000 -1.418915e+00  6.788865e+00  2.420982e+01  # C1 c2c1im+
    159       9    5   0.210000  1.670000e-03  6.332001e+00  2.660481e+01  # HCR c2c1im+
    160       9    4  -0.170000 -7.587110e-01  7.533009e+00  2.903997e+01  # C1 c2c1im+
    161       9    6   0.210000 -3.024582e+00  8.964339e+00  2.795047e+01  # HCW c2c1im+
    162       9    6   0.210000 -3.374735e+00  8.567452e+00  2.538010e+01  # HCW c2c1im+
    163       9    7   0.130000 -1.257296e+00  7.632577e+00  2.353891e+01  # H1 c2c1im+
    164       9    7   0.130000 -5.540160e-01  6.126440e+00  2.417459e+01  # H1 c2c1im+
    165       9    7   0.130000 -2.308079e+00  6.241576e+00  2.389683e+01  # H1 c2c1im+
    166       9    8  -0.050000  4.542040e-01  6.616909e+00  2.904057e+01  # CE c2c1im+
    167       9    7   0.130000 -4.606320e-01  8.529864e+00  2.936482e+01  # H1 c2c1im+
    168       9    7   0.130000 -1.511415e+00  7.138864e+00  2.972274e+01  # H1 c2c1im+
    169       9    9   0.060000  8.687750e-01  6.562756e+00  3.004719e+01  # HC c2c1im+
    170       9    9   0.060000  1.570370e-01  5.619548e+00  2.871643e+01  # HC c2c1im+
    171       9    9   0.060000  1.207821e+00  7.010549e+00  2.835850e+01  # HC c2c1im+
    172      10    1   0.150000 -1.330842e+01 -3.729635e+00 -4.317100e-02  # NA c2c1im+
    173      10    2  -0.110000 -1.263640e+01 -4.480965e+00  8.012890e-01  # CR c2c1im+
    174      10    1   0.150000 -1.316917e+01 -4.389755e+00  2.000063e+00  # NA c2c1im+
    175      10    3  -0.130000 -1.424469e+01 -3.531652e+00  1.923893e+00  # CW c2c1im+
    176      10    3  -0.130000 -1.433148e+01 -3.120253e+00  6.505110e-01  # CW c2c1im+
    177      10    4  -0.170000 -1.302809e+01 -3.562064e+00 -1.472328e+00  # C1 c2c1im+
    178      10    5   0.210000 -1.177598e+01 -5.082675e+00  5.482500e-01  # HCR c2c1im+
    179      10    4  -0.170000 -1.270673e+01 -5.076526e+00  3.209877e+00  # C1 c2c1im+
    180      10    6   0.210000 -1.489526e+01 -3.244501e+00  2.736726e+00  # HCW c2c1im+
    181      10    6   0.210000 -1.506510e+01 -2.439404e+00  2.447530e-01  # HCW c2c1im+
    182      10    7   0.130000 -1.282251e+01 -2.512393e+00 -1.682156e+00  # H1 c2c1im+
    183      10    7   0.130000 -1.216109e+01 -4.163330e+00 -1.745990e+00  # H1 c2c1im+
    184      10    7   0.130000 -1.389194e+01 -3.885699e+00 -2.052952e+00  # H1 c2c1im+
    185      10    8  -0.050000 -1.149437e+01 -5.930596e+00  2.876464e+00  # CE c2c1im+
    186      10    7   0.130000 -1.243454e+01 -4.339321e+00  3.965220e+00  # H1 c2c1im+
    187      10    7   0.130000 -1.350397e+01 -5.712626e+00  3.594423e+00  # H1 c2c1im+
    188      10    9   0.060000 -1.115054e+01 -6.441224e+00  3.775984e+00  # HC c2c1im+
    189      10    9   0.060000 -1.176570e+01 -6.668599e+00  2.121590e+00  # HC c2c1im+
    190      10    9   0.060000 -1.069627e+01 -5.295294e+00  2.492386e+00  # HC c2c1im+
    191      11    1   0.150000 -1.428490e+01  1.057222e+01 -1.803474e+01  # NA c2c1im+
    192      11    2  -0.110000 -1.395162e+01  1.162795e+01 -1.732509e+01  # CR c2c1im+
    193      11    1   0.150000 -1.421127e+01  1.272251e+01 -1.800609e+01  # NA c2c1im+
    194      11    3  -0.130000 -1.474153e+01  1.235142e+01 -1.922264e+01  # CW c2c1im+
    195      11    3  -0.130000 -1.478742e+01  1.101132e+01 -1.924050e+01  # CW c2c1im+
    196      11    4  -0.170000 -1.415023e+01  9.170867e+00 -1.762582e+01  # C1 c2c1im+
    197      11    5   0.210000 -1.352818e+01  1.160021e+01 -1.633195e+01  # HCR c2c1im+
    198      11    4  -0.170000 -1.398039e+01  1.409899e+01 -1.755759e+01  # C1 c2c1im+
    199      11    6   0.210000 -1.506018e+01  1.301494e+01 -2.001295e+01  # HCW c2c1im+
    200      11    6   0.210000 -1.514998e+01  1.039241e+01 -2.004790e+01  # HCW c2c1im+
    201      11    7   0.130000 -1.349540e+01  8.649438e+00 -1.832397e+01  # H1 c2c1im+
    202      11    7   0.130000 -1.372360e+01  9.123598e+00 -1.662390e+01  # H1 c2c1im+
    203      11    7   0.130000 -1.513143e+01  8.696148e+00 -1.762512e+01  # H1 c2c1im+
    204      11    8  -0.050000 -1.338369e+01  1.408382e+01 -1.615969e+01  # CE c2c1im+
    205      11    7   0.130000 -1.329037e+01  1.459352e+01 -1.824127e+01  # H1 c2c1im+
    206      11    7   0.130000 -1.492639e+01  1.464023e+01 -1.754242e+01  # H1 c2c1im+
    207      11    9   0.060000 -1.321203e+01  1.510726e+01 -1.582623e+01  # HC c2c1im+
    208      11    9   0.060000 -1.407328e+01  1.359001e+01 -1.547507e+01  # HC c2c1im+
    209      11    9   0.060000 -1.243726e+01  1.354330e+01 -1.617392e+01  # HC c2c1im+
    210      12    1   0.150000 -5.277379e+00 -6.188703e+00 -4.063076e+00  # NA c2c1im+
    211      12    2  -0.110000 -5.746465e+00 -5.035726e+00 -4.487138e+00  # CR c2c1im+
    212      12    1   0.150000 -5.957711e+00 -4.237279e+00 -3.463868e+00  # NA c2c1im+
    213      12    3  -0.130000 -5.605038e+00 -4.913518e+00 -2.316172e+00  # CW c2c1im+
    214      12    3  -0.130000 -5.181043e+00 -6.129682e+00 -2.689610e+00  # CW c2c1im+
    215      12    4  -0.170000 -4.917030e+00 -7.340659e+00 -4.895124e+00  # C1 c2c1im+
    216      12    5   0.210000 -5.930604e+00 -4.782535e+00 -5.520767e+00  # HCR c2c1im+
    217      12    4  -0.170000 -6.476742e+00 -2.867574e+00 -3.524461e+00  # C1 c2c1im+
    218      12    6   0.210000 -5.659797e+00 -4.535262e+00 -1.306062e+00  # HCW c2c1im+
    219      12    6   0.210000 -4.830051e+00 -6.915261e+00 -2.036870e+00  # HCW c2c1im+
    220      12    7   0.130000 -5.523449e+00 -8.200028e+00 -4.609048e+00  # H1 c2c1im+
    221      12    7   0.130000 -5.096744e+00 -7.102661e+00 -5.943533e+00  # H1 c2c1im+
    222      12    7   0.130000 -3.862589e+00 -7.577005e+00 -4.752315e+00  # H1 c2c1im+
    223      12    8  -0.050000 -6.743417e+00 -2.489622e+00 -4.972369e+00  # CE c2c1im+
    224      12    7   0.130000 -7.404784e+00 -2.804677e+00 -2.956235e+00  # H1 c2c1im+
    225      12    7   0.130000 -5.743924e+00 -2.181654e+00 -3.099502e+00  # H1 c2c1im+
    226      12    9   0.060000 -7.129327e+00 -1.471220e+00 -5.017421e+00  # HC c2c1im+
    227      12    9   0.060000 -5.815785e+00 -2.551604e+00 -5.541365e+00  # HC c2c1im+
    228      12    9   0.060000 -7.476645e+00 -3.174627e+00 -5.398098e+00  # HC c2c1im+
    229      13    1   0.150000 -8.354570e+00  7.877065e+00  1.757115e+01  # NA c2c1im+
    230      13    2  -0.110000 -8.973850e+00  8.164863e+00  1.644737e+01  # CR c2c1im+
    231      13    1   0.150000 -8.960504e+00  9.465168e+00  1.625179e+01  # NA c2c1im+
    232      13    3  -0.130000 -8.295426e+00  1.004794e+01  1.730863e+01  # CW c2c1im+
    233      13    3  -0.130000 -7.917797e+00  9.058209e+00  1.813089e+01  # CW c2c1im+
    234      13    4  -0.170000 -8.157490e+00  6.539687e+00  1.813837e+01  # C1 c2c1im+
    235      13    5   0.210000 -9.425648e+00  7.441770e+00  1.578449e+01  # HCR c2c1im+
    236      13    4  -0.170000 -9.547380e+00  1.017758e+01  1.511284e+01  # C1 c2c1im+
    237      13    6   0.210000 -8.112702e+00  1.110316e+01  1.744840e+01  # HCW c2c1im+
    238      13    6   0.210000 -7.373691e+00  9.166273e+00  1.905753e+01  # HCW c2c1im+
    239      13    7   0.130000 -8.627279e+00  6.488200e+00  1.912059e+01  # H1 c2c1im+
    240      13    7   0.130000 -8.607966e+00  5.795773e+00  1.748128e+01  # H1 c2c1im+
    241      13    7   0.130000 -7.090485e+00  6.339310e+00  1.823558e+01  # H1 c2c1im+
    242      13    8  -0.050000 -1.018989e+01  9.177638e+00  1.416536e+01  # CE c2c1im+
    243      13    7   0.130000 -1.030389e+01  1.087578e+01  1.547104e+01  # H1 c2c1im+
    244      13    7   0.130000 -8.767098e+00  1.072688e+01  1.458603e+01  # H1 c2c1im+
    245      13    9   0.060000 -1.062624e+01  9.707328e+00  1.331853e+01  # HC c2c1im+
    246      13    9   0.060000 -9.434014e+00  8.479307e+00  1.380607e+01  # HC c2c1im+
    247      13    9   0.060000 -1.097081e+01  8.628197e+00  1.469108e+01  # HC c2c1im+
    248      14    1   0.150000  1.046368e+01 -1.336958e+01 -1.713229e+01  # NA c2c1im+
    249      14    2  -0.110000  1.056654e+01 -1.380031e+01 -1.589410e+01  # CR c2c1im+
    250      14    1   0.150000  1.120081e+01 -1.290945e+01 -1.516382e+01  # NA c2c1im+
    251      14    3  -0.130000  1.152483e+01 -1.184510e+01 -1.597686e+01  # CW c2c1im+
    252      14    3  -0.130000  1.106544e+01 -1.213185e+01 -1.720365e+01  # CW c2c1im+
    253      14    4  -0.170000  9.824029e+00 -1.407310e+01 -1.824812e+01  # C1 c2c1im+
    254      14    5   0.210000  1.018702e+01 -1.474412e+01 -1.553137e+01  # HCR c2c1im+
    255      14    4  -0.170000  1.151249e+01 -1.302097e+01 -1.373568e+01  # C1 c2c1im+
    256      14    6   0.210000  1.204992e+01 -1.094870e+01 -1.568163e+01  # HCW c2c1im+
    257      14    6   0.210000  1.115089e+01 -1.150988e+01 -1.808242e+01  # HCW c2c1im+
    258      14    7   0.130000  1.055598e+01 -1.424519e+01 -1.903725e+01  # H1 c2c1im+
    259      14    7   0.130000  9.434449e+00 -1.502964e+01 -1.789973e+01  # H1 c2c1im+
    260      14    7   0.130000  9.005387e+00 -1.346831e+01 -1.863818e+01  # H1 c2c1im+
    261      14    8  -0.050000  1.098660e+01 -1.434404e+01 -1.320339e+01  # CE c2c1im+
    262      14    7   0.130000  1.259238e+01 -1.297654e+01 -1.359439e+01  # H1 c2c1im+
    263      14    7   0.130000  1.104178e+01 -1.219966e+01 -1.319533e+01  # H1 c2c1im+
    264      14    9   0.060000  1.121833e+01 -1.442696e+01 -1.214154e+01  # HC c2c1im+
    265      14    9   0.060000  9.906604e+00 -1.438921e+01 -1.334366e+01  # HC c2c1im+
    266      14    9   0.060000  1.145720e+01 -1.516608e+01 -1.374272e+01  # HC c2c1im+
    267      15    1   0.150000 -3.560450e+00 -9.389280e-01  1.545424e+01  # NA c2c1im+
    268      15    2  -0.110000 -4.631996e+00 -1.783030e-01  1.540460e+01  # CR c2c1im+
    269      15    1   0.150000 -5.136891e+00 -4.076100e-02  1.661100e+01  # NA c2c1im+
    270      15    3  -0.130000 -4.346520e+00 -7.525560e-01  1.748709e+01  # CW c2c1im+
    271      15    3  -0.130000 -3.364052e+00 -1.312310e+00  1.676618e+01  # CW c2c1im+
    272      15    4  -0.170000 -2.715992e+00 -1.327769e+00  1.432073e+01  # C1 c2c1im+
    273      15    5   0.210000 -5.036677e+00  2.666780e-01  1.450759e+01  # HCR c2c1im+
    274      15    4  -0.170000 -6.330049e+00  7.318660e-01  1.696958e+01  # C1 c2c1im+
    275      15    6   0.210000 -4.491102e+00 -8.426530e-01  1.855357e+01  # HCW c2c1im+
    276      15    6   0.210000 -2.568440e+00 -1.938076e+00  1.714277e+01  # HCW c2c1im+
    277      15    7   0.130000 -2.710084e+00 -2.413722e+00  1.422708e+01  # H1 c2c1im+
    278      15    7   0.130000 -3.110219e+00 -8.867920e-01  1.340518e+01  # H1 c2c1im+
    279      15    7   0.130000 -1.698908e+00 -9.723140e-01  1.448593e+01  # H1 c2c1im+
    280      15    8  -0.050000 -6.917021e+00  1.368024e+00  1.572011e+01  # CE c2c1im+
    281      15    7   0.130000 -7.069374e+00  7.070500e-02  1.742164e+01  # H1 c2c1im+
    282      15    7   0.130000 -6.058199e+00  1.512113e+00  1.768050e+01  # H1 c2c1im+
    283      15    9   0.060000 -7.804157e+00  1.942487e+00  1.598672e+01  # HC c2c1im+
    284      15    9   0.060000 -6.178624e+00  2.029916e+00  1.526760e+01  # HC c2c1im+
    285      15    9   0.060000 -7.189799e+00  5.885080e-01  1.500874e+01  # HC c2c1im+
    286      16    1   0.150000 -1.314538e+01  6.621080e+00  2.917716e+01  # NA c2c1im+
    287      16    2  -0.110000 -1.321153e+01  7.930426e+00  2.927944e+01  # CR c2c1im+
    288      16    1   0.150000 -1.201118e+01  8.449259e+00  2.914088e+01  # NA c2c1im+
    289      16    3  -0.130000 -1.112172e+01  7.416515e+00  2.893795e+01  # CW c2c1im+
    290      16    3  -0.130000 -1.182858e+01  6.277160e+00  2.896056e+01  # CW c2c1im+
    291      16    4  -0.170000 -1.426754e+01  5.682768e+00  2.927463e+01  # C1 c2c1im+
    292      16    5   0.210000 -1.411602e+01  8.494980e+00  2.945145e+01  # HCR c2c1im+
    293      16    4  -0.170000 -1.167041e+01  9.874188e+00  2.919193e+01  # C1 c2c1im+
    294      16    6   0.210000 -1.005596e+01  7.507567e+00  2.878878e+01  # HCW c2c1im+
    295      16    6   0.210000 -1.143925e+01  5.277881e+00  2.883302e+01  # HCW c2c1im+
    296      16    7   0.130000 -1.409561e+01  4.994660e+00  3.010230e+01  # H1 c2c1im+
    297      16    7   0.130000 -1.519042e+01  6.236067e+00  2.944852e+01  # H1 c2c1im+
    298      16    7   0.130000 -1.435210e+01  5.118933e+00  2.834563e+01  # H1 c2c1im+
    299      16    8  -0.050000 -1.293065e+01  1.068893e+01  2.943358e+01  # CE c2c1im+
    300      16    7   0.130000 -1.096343e+01  1.005041e+01  3.000263e+01  # H1 c2c1im+
    301      16    7   0.130000 -1.121993e+01  1.017468e+01  2.824595e+01  # H1 c2c1im+
    302      16    9   0.060000 -1.267727e+01  1.174839e+01  2.947153e+01  # HC c2c1im+
    303      16    9   0.060000 -1.363808e+01  1.051388e+01  2.862303e+01  # HC c2c1im+
    304      16    9   0.060000 -1.338159e+01  1.038961e+01  3.037971e+01  # HC c2c1im+
    305      17    1   0.150000 -2.564392e+00 -1.296020e+01  1.908448e+01  # NA c2c1im+
    306      17    2  -0.110000 -2.156779e+00 -1.217853e+01  1.810874e+01  # CR c2c1im+