ITEM: TIMESTEP
5000000
ITEM: NUMBER OF ATOMS
10590
ITEM: BOX BOUNDS pp pp ff
-1.8517606659999998e+01 1.7699648337999999e+01
-1.9567289658000000e+01 1.8632104154000000e+01
-5.0000000000000000e+01 5.0000000000000000e+01
ITEM: ATOMS id mol type x y z q 
8705 701 15 -16.512 -18.9194 -36.4418 0 
8706 701 15 -17.9533 -16.9653 -36.4179 0 
8707 701 15 -17.2451 -14.8499 -35.5063 0 
8708 701 15 -15.7393 -14.4475 -37.7211 0 
8709 701 17 -13.8814 -17.7656 -37.0674 0 
8710 701 18 -12.6549 -19.1017 -36.2502 0 
8711 701 15 -15.8044 -16.6246 -36.6412 0 
8712 701 15 -14.0525 -15.4063 -36.0402 0 
8713 701 15 -13.1961 -13.874 -37.5335 0 
8715 701 15 -11.6766 -17.5344 -36.2176 0 
8716 701 17 -11.7967 -15.3668 -36.1451 0 
8765 701 15 -16.4294 -12.6405 -36.1162 0 
8766 701 15 -17.8483 -11.8395 -37.8091 0 
8767 701 15 -17.4728 -10.1158 -35.9185 0 
8769 701 15 -13.8291 -12.3201 -35.6255 0 
8770 701 15 -14.8502 -12.0867 -37.899 0 
8771 701 15 -14.7395 -10.2731 -36.1671 0 
8774 701 15 -12.0051 -12.2576 -38.7277 0 
8775 701 15 -11.9609 -11.1255 -36.7181 0 
9155 701 15 -15.8073 -17.1255 -33.6935 0 
9159 701 15 -15.5669 -13.0057 -34.0326 0 
9161 701 15 -14.5068 -15.0072 -33.8494 0 
9165 701 15 -11.9569 -15.6188 -33.6796 0 
9166 701 15 -12.3027 -13.6978 -34.8096 0 
9213 701 15 -17.5671 -11.6837 -34.1816 0 
9217 701 15 -13.4438 -11.0898 -33.4988 0 
9218 701 15 -15.5262 -10.7616 -34.1005 0 
8714 701 15 -9.79566 -18.6907 -36.41 0 
8717 701 15 -10.8971 -14.5732 -38.1498 0 
8720 701 15 -9.74816 -16.7001 -37.7678 0 
8721 701 15 -9.60224 -15.419 -35.6694 0 
8773 701 15 -10.729 -13.0126 -36.4188 0 
8778 701 15 -9.68272 -12.146 -38.5082 0 
8779 701 15 -9.488 -10.9199 -36.4716 0 
9170 701 15 -10.0159 -13.6944 -34.2563 0 
9221 701 15 -11.2219 -11.7634 -34.4238 0 
9567 701 18 -10.774 -19.3242 -33.6641 0 
8718 701 17 -8.22548 -17.2907 -35.4683 0 
8719 701 18 -7.9457 -18.9669 -36.9605 0 
8722 701 15 -8.58816 -14.3065 -38.0545 0 
8723 701 15 -6.22342 -18.2643 -36.1238 0 
8724 701 15 -7.0294 -16.7838 -37.8621 0 
8725 701 15 -7.39672 -15.0954 -36.1655 0 
8726 701 15 -6.3216 -14.603 -38.5272 0 
8728 701 15 -4.64631 -16.8464 -37.366 0 
8729 701 15 -5.15103 -15.1204 -35.8886 0 
8777 701 15 -8.51936 -12.9963 -35.8089 0 
8781 701 15 -6.30926 -12.9522 -35.9502 0 
8782 701 15 -7.44328 -12.1271 -37.9907 0 
8783 701 15 -7.24683 -10.8305 -35.949 0 
8786 701 15 -5.23098 -12.6655 -37.885 0 
8787 701 15 -4.64544 -10.8074 -36.8523 0 
9642 701 16 -5.63723 -11.9988 -40.0403 0 
8784 701 15 -6.07103 -10.0618 -38.6002 0 
9173 701 15 -7.45197 -15.1824 -33.8364 0 
9175 701 15 -5.94089 -13.4807 -33.8471 0 
9177 701 15 -4.33077 -15.25 -33.7948 0 
9225 701 15 -8.67158 -11.4445 -33.9984 0 
9229 701 15 -6.37733 -11.274 -33.8508 0 
9234 701 15 -4.5856 -10.3763 -34.6733 0 
9179 701 15 -4.13528 -12.9864 -35.1565 0 
9576 701 18 -5.91382 -18.8514 -33.3718 0 
8727 701 17 -3.91147 -18.7213 -35.7272 0 
8730 701 15 -3.98266 -14.547 -38.1714 0 
8731 701 15 -0.950463 -18.989 -36.4076 0 
8732 701 15 -2.41076 -17.4956 -37.3185 0 
8733 701 15 -2.65463 -15.3336 -36.5506 0 
8734 701 15 -0.855483 -14.3046 -35.7929 0 
8737 701 15 -0.514925 -16.7916 -35.5355 0 
8785 701 15 -3.08591 -12.4639 -37.1544 0 
8789 701 15 -1.16016 -13.1577 -38.0533 0 
8790 701 15 -1.93161 -12.4183 -35.1463 0 
8791 701 15 -2.35704 -10.6033 -38.3457 0 
8792 701 15 -1.32497 -10.5211 -36.157 0 
9181 701 15 -2.17312 -15.8117 -34.2942 0 
9182 701 15 -2.49468 -13.7184 -33.3996 0 
9238 701 15 -2.36004 -10.3719 -34.1949 0 
8768 701 15 -16.176 -9.77909 -38.0186 0 
8772 701 15 -13.3932 -9.85 -38.1456 0 
8821 701 15 -16.2213 -8.06353 -35.8013 0 
8822 701 15 -17.5914 -7.77093 -37.843 0 
8823 701 15 -17.4107 -5.85449 -35.5925 0 
8824 701 15 -16.3614 -5.71322 -37.8735 0 
8825 701 15 -13.7125 -8.19212 -36.2413 0 
8826 701 15 -14.9355 -7.67175 -38.2074 0 
8827 701 15 -14.9148 -6.08618 -36.0521 0 
8828 701 15 -13.6537 -5.61099 -38.2576 0 
8830 701 15 -12.2543 -7.72435 -38.1769 0 
8831 701 15 -12.4311 -6.19577 -36.259 0 
8877 701 15 -16.3175 -3.90051 -36.1517 0 
8878 701 15 -17.7054 -3.66275 -38.0985 0 
8879 701 15 -17.7079 -1.9391 -35.8866 0 
8880 701 15 -16.3446 -1.57142 -38.1112 0 
8881 701 15 -13.6917 -4.09458 -36.1415 0 
8882 701 15 -14.9097 -3.56183 -38.1131 0 
8883 701 15 -14.9613 -1.98431 -36.2024 0 
8884 701 15 -13.489 -1.69788 -38.0605 0 
8886 701 15 -12.1668 -3.70333 -38.0648 0 
8887 701 15 -12.1633 -2.35047 -36.032 0 
9646 701 16 -16.1848 -4.39942 -39.9265 0 
9214 701 17 -17.3467 -9.33095 -33.5981 0 
9219 701 15 -15.1583 -8.62485 -33.7572 0 
9220 701 15 -13.0655 -8.09247 -34.0786 0 
9223 701 15 -12.3549 -9.83294 -35.0359 0 
9271 701 15 -18.1578 -7.0856 -33.8287 0 
9273 701 18 -18.1271 -3.54453 -33.678 0 
9274 701 15 -15.4139 -4.51584 -34.1554 0 
9276 701 15 -14.2308 -6.31861 -33.8546 0 
9278 701 15 -13.021 -4.33502 -33.9277 0 
9280 701 15 -11.8977 -6.15014 -34.0685 0 
9327 701 15 -16.2128 -2.43882 -34.1582 0 
9329 701 17 -17.4016 -0.544793 -33.9605 0 
9332 701 15 -13.7708 -2.34598 -34.3356 0 
9338 701 17 -11.9876 -1.02703 -33.7361 0 
8776 701 15 -10.7807 -9.8069 -38.2708 0 
8829 701 15 -10.9679 -8.36118 -36.2769 0 
8832 701 15 -10.9708 -5.73555 -38.2087 0 
8834 701 15 -9.62658 -7.71452 -38.3847 0 
8835 701 15 -9.64892 -6.43506 -36.25 0 
8885 701 15 -10.9738 -4.44934 -35.7864 0 
8888 701 15 -11.0252 -1.52678 -38.1567 0 
8890 701 15 -9.72949 -3.7742 -37.8426 0 
8891 701 15 -9.7574 -2.17069 -36.2086 0 
9226 701 15 -10.08 -9.86378 -34.6246 0 
9224 701 15 -10.7244 -7.93504 -33.9891 0 
9285 701 17 -9.65356 -5.84219 -34.0384 0 
9336 701 15 -10.6738 -2.84811 -34.1813 0 
9342 701 15 -9.7816 -0.623741 -33.6066 0 
8780 701 15 -8.39339 -9.91939 -38.3549 0 
8833 701 15 -8.52599 -8.60626 -36.2209 0 
8836 701 15 -8.3727 -5.65432 -38.1416 0 
8837 701 15 -6.00992 -9.05281 -36.4104 0 
8838 701 15 -7.17727 -7.86591 -38.2432 0 
8839 701 15 -7.2264 -6.61373 -36.2696 0 
8840 701 15 -6.03489 -5.83068 -38.8016 0 
8842 701 15 -4.92699 -7.29427 -37.2538 0 
8843 701 15 -4.80785 -6.01758 -35.4017 0 
8889 701 15 -8.56359 -4.37659 -35.5571 0 
8892 701 15 -8.23726 -0.559076 -35.1622 0 
8893 701 17 -6.38773 -4.58895 -36.779 0 
8894 701 15 -7.3922 -3.55171 -38.659 0 
8895 701 15 -7.5944 -2.42565 -36.4193 0 
8896 701 15 -5.91829 -0.740771 -38.0092 0 
8898 701 15 -4.93287 -3.59191 -38.8145 0 
8899 701 15 -5.4848 -2.48952 -36.7377 0 
9635 701 16 -9.23749 -2.21252 -39.6144 0 
9636 701 18 -7.55314 -1.61658 -38.5126 0 
8897 701 15 -4.10299 -4.12306 -36.399 0 
9228 701 15 -8.03947 -9.16684 -33.9844 0 
9232 701 15 -6.35016 -7.92334 -34.5943 0 
9288 701 15 -7.43931 -6.00591 -34.1322 0 
9290 701 15 -6.35822 -4.08055 -34.5243 0 
9340 701 15 -8.44365 -2.55562 -34.0498 0 
9345 701 15 -6.4762 -1.64493 -34.3306 0 
9349 701 15 -4.56566 -2.68249 -34.5131 0 
9644 701 16 -4.59465 -0.587046 -39.8449 0 
8788 701 15 -3.3742 -9.08039 -36.1283 0 
8841 701 15 -3.96427 -8.97948 -38.5464 0 
8844 701 15 -3.68573 -5.56825 -38.2783 0 
8845 701 15 -0.828513 -8.88972 -37.5308 0 
8846 701 15 -2.50858 -7.43924 -37.4571 0 
8847 701 15 -2.36518 -5.65707 -36.1674 0 
8848 701 15 -1.28503 -5.51592 -38.4133 0 
8900 701 17 -3.73159 -1.34322 -36.2675 0 
8901 701 15 -0.928971 -3.80131 -35.5649 0 
8902 701 15 -2.25386 -3.6433 -37.503 0 
8903 701 15 -3.28616 -1.82631 -38.4461 0 
8904 701 15 -1.47948 -1.65138 -36.8083 0 
9633 701 16 -1.05782 -1.98851 -39.2612 0 
9236 701 15 -3.55333 -8.44658 -33.8766 0 
9240 701 15 -1.54973 -8.34041 -35.054 0 
9294 701 15 -3.13194 -4.45605 -34.4296 0 
9296 701 15 -2.07103 -6.37305 -34.0454 0 
9298 701 15 -1.23397 -4.12342 -33.4129 0 
9353 701 15 -2.38062 -2.3462 -34.5661 0 
9355 701 15 -1.17803 -0.563987 -34.5618 0 
4880 258 10 -16.2783 -14.1289 -26.9363 0.35 
4881 258 11 -16.4687 -14.8446 -25.8487 -0.16 
4882 258 11 -15.3541 -14.772 -27.4784 -0.16 
4883 258 11 -17.5056 -14.1225 -27.4318 -0.16 
4884 258 12 -15.7371 -12.5766 -26.6255 1.02 
4885 258 13 -15.3314 -11.8043 -27.8357 -0.66 
4886 258 14 -16.9628 -12.1847 -25.9938 -0.53 
4887 258 14 -14.7446 -12.7851 -25.6077 -0.53 
4888 258 12 -16.3235 -11.1743 -28.7187 1.02 
4889 258 14 -17.5902 -11.7575 -28.6986 -0.53 
4890 258 14 -15.6981 -11.1893 -29.7947 -0.53 
5270 284 10 -11.9943 -13.6819 -27.1893 0.35 
5271 284 11 -11.7584 -14.6777 -26.2879 -0.16 
5273 284 11 -13.2013 -13.4928 -27.6515 -0.16 
5276 284 14 -11.4612 -12.5262 -25.4099 -0.53 
5279 284 14 -13.4406 -10.7466 -26.237 -0.53 
7255 416 13 -11.4653 -11.244 -30.4009 -0.66 
7258 416 12 -12.8693 -11.0838 -30.6965 1.02 
7259 416 14 -12.3438 -11.0738 -29.5061 -0.53 
7260 416 14 -13.7044 -12.0545 -30.7058 -0.53 
8145 475 14 -13.8466 -15.2923 -25.4516 -0.53 
8330 488 10 -11.8786 -14.8284 -30.9091 0.35 
8332 488 11 -12.0466 -13.7368 -30.2511 -0.16 
8333 488 11 -12.7931 -15.0214 -31.6355 -0.16 
8334 488 12 -12.5464 -15.907 -30.2293 1.02 
8335 488 13 -13.8493 -15.1868 -29.6482 -0.66 
8336 488 14 -12.573 -17.1506 -30.8849 -0.53 
8337 488 14 -11.4967 -16.0562 -29.3678 -0.53 
8338 488 12 -15.2942 -15.285 -30.1917 1.02 
8339 488 14 -15.1705 -15.914 -31.4256 -0.53 
8340 488 14 -16.2084 -14.1388 -30.0152 -0.53 
8341 488 10 -16.7584 -16.1196 -29.5519 0.35 
8342 488 11 -17.8506 -15.5771 -29.2177 -0.16 
8343 488 11 -16.4477 -16.7246 -28.5017 -0.16 
8344 488 11 -17.3721 -16.851 -30.3464 -0.16 
9156 701 15 -17.7668 -16.1618 -32.9795 0 
9157 701 17 -17.1175 -13.9992 -32.4653 0 
9158 701 18 -18.2977 -12.4622 -32.5815 0 
9160 701 15 -13.5455 -17.2562 -33.1208 0 
9162 701 15 -14.9824 -13.518 -31.8877 0 
9163 701 15 -13.0089 -13.1368 -32.7986 0 
9212 701 15 -16.4695 -11.149 -31.965 0 
9222 701 17 -11.4966 -10.2886 -32.6863 0 
5278 284 12 -12.4842 -10.178 -27.0469 1.02 
1559 83 1 -17.4957 -17.8847 -26.5232 0.15 
1919 101 9 -14.6293 -18.9061 -30.7566 0.06 
1571 83 7 -15.7831 -18.3161 -27.1944 0.13 
1914 101 8 -15.3885 -18.4395 -30.2133 -0.05 
1917 101 9 -15.819 -18.0238 -31.1512 0.06 
1915 101 7 -16.9166 -18.5604 -29.0423 0.13 
1918 101 9 -14.9455 -17.6472 -29.6633 0.06 
1908 101 4 -16.4022 -19.2819 -29.5197 -0.17 
2521 133 7 -12.4762 -16.5153 -27.3657 0.13 
2520 133 7 -14.2801 -16.5514 -27.7246 0.13 
1568 83 6 -18.1628 -16.0445 -26.704 0.21 
2514 133 4 -13.3793 -17.1108 -27.5474 -0.17 
2509 133 1 -13.3035 -18.5212 -27.7101 0.15 
2510 133 2 -13.8035 -19.1662 -26.8408 -0.11 
2519 133 7 -13.4253 -17.1448 -28.5234 0.13 
1564 83 4 -16.1968 -17.8759 -26.3344 -0.17 
1560 83 2 -18.0081 -18.9697 -26.986 -0.11 
1570 83 7 -15.8937 -18.649 -25.761 0.13 
1569 83 7 -15.6656 -16.9525 -26.308 0.13 
2518 133 6 -12.708 -19.2016 -29.7458 0.21 
2515 133 5 -13.974 -18.7674 -26.0102 0.21 
5272 284 11 -11.3901 -14.3112 -27.9867 -0.16 
1907 101 5 -18.0525 -18.4475 -31.6597 0.21 
1563 83 3 -18.4513 -16.9952 -26.5399 -0.13 
2513 133 3 -12.9689 -19.3342 -28.686 -0.13 
3515 185 9 -11.3822 -18.4898 -26.0922 0.06 
1902 101 2 -18.3049 -19.2296 -30.9457 -0.11 
3512 185 7 -11.2738 -17.824 -28.1427 0.13 
3505 185 6 -10.9908 -19.034 -30.2185 0.21 
3514 185 9 -10.4688 -17.0929 -25.6283 0.06 
3510 185 8 -10.4755 -18.0836 -26.1499 -0.05 
5275 284 13 -11.2374 -11.0376 -27.2737 -0.66 
5274 284 12 -11.0766 -12.4697 -26.7812 1.02 
5277 284 14 -9.79996 -13.0061 -26.9278 -0.53 
7253 416 11 -10.1995 -12.8064 -29.3549 -0.16 
7254 416 12 -10.0261 -11.1151 -30.8509 1.02 
8331 488 11 -10.7631 -15.0429 -31.3349 -0.16 
9164 701 15 -10.8952 -17.5618 -32.9111 0 
9167 701 15 -10.8304 -12.7814 -32.361 0 
9169 701 15 -9.61269 -15.6706 -33.2397 0 
7256 416 14 -9.78545 -10.0679 -30.1285 -0.53 
3511 185 7 -9.95116 -16.9514 -27.8595 0.13 
3504 185 4 -10.3592 -17.8835 -27.5994 -0.17 
3499 185 1 -9.8443 -18.9473 -28.3708 0.15 
3513 185 9 -9.75755 -18.6723 -25.7406 0.06 
3500 185 3 -10.0782 -19.2874 -29.6561 -0.13 
6259 349 11 -7.62724 -15.2332 -25.0069 -0.16 
5552 302 11 -5.08563 -11.142 -27.1172 -0.16 
5553 302 11 -4.77266 -13.0145 -27.9368 -0.16 
6245 349 10 -7.45029 -16.0153 -30.5389 0.35 
6246 349 11 -8.21134 -15.4854 -31.3368 -0.16 
6247 349 11 -6.79366 -17.0417 -30.9531 -0.16 
6248 349 11 -6.60633 -15.2475 -29.9144 -0.16 
6249 349 12 -8.62645 -16.1858 -29.7012 1.02 
6250 349 13 -7.70812 -16.7051 -28.6095 -0.66 
6251 349 14 -9.19863 -14.9873 -29.232 -0.53 
6252 349 14 -9.32418 -17.1147 -30.5544 -0.53 
6253 349 12 -7.10345 -15.7795 -27.5476 1.02 
6254 349 14 -7.04399 -14.3657 -27.6757 -0.53 
6255 349 14 -5.9723 -16.3497 -26.9029 -0.53 
6256 349 10 -8.0364 -15.9536 -26.073 0.35 
6258 349 11 -9.27766 -15.5951 -26.3203 -0.16 
6386 358 14 -4.64557 -15.7304 -31.1307 -0.53 
6387 358 14 -4.34578 -15.819 -29.2354 -0.53 
6391 358 10 -5.09785 -11.7755 -30.3417 0.35 
6392 358 11 -5.46475 -11.1477 -29.349 -0.16 
6393 358 11 -5.92896 -12.7236 -30.0254 -0.16 
6394 358 11 -5.29519 -11.0354 -31.2819 -0.16 
6819 387 12 -6.68858 -11.7547 -25.287 1.02 
6820 387 13 -6.60863 -10.2332 -25.2295 -0.66 
6822 387 14 -7.57309 -12.4616 -26.0435 -0.53 
7250 416 10 -9.24422 -12.3104 -29.8484 0.35 
7251 416 11 -8.42461 -12.1381 -28.8678 -0.16 
7252 416 11 -8.48577 -13.0897 -30.4246 -0.16 
7257 416 14 -9.06895 -10.3796 -30.6381 -0.53 
9168 701 15 -8.14475 -17.4559 -32.9823 0 
9171 701 15 -8.49266 -13.2553 -32.6788 0 
9172 701 15 -5.87906 -16.8623 -33.2267 0 
9174 701 15 -6.60627 -14.0246 -31.8169 0 
9178 701 15 -4.43718 -13.6754 -32.1755 0 
9230 701 15 -7.44339 -11.3587 -31.9171 0 
3498 185 2 -8.61294 -19.1604 -28.1744 -0.11 
3507 185 7 -6.25521 -18.913 -30.3806 0.13 
3503 185 5 -8.11689 -18.7948 -27.2856 0.21 
6257 349 11 -7.94173 -17.2237 -25.6139 -0.16 
3508 185 7 -6.21151 -18.7111 -28.6901 0.13 
3502 185 4 -6.64012 -19.3269 -29.4631 -0.17 
3497 185 1 -7.98808 -19.3824 -29.2761 0.15 
966 51 7 -7.32628 -10.1422 -29.4073 0.13 
5551 302 10 -4.18142 -11.9614 -27.4608 0.35 
959 51 6 -9.39039 -10.252 -28.0026 0.21 
74 4 9 -4.32785 -19.0411 -28.4734 0.06 
75 4 9 -4.09778 -17.7239 -27.7133 0.06 
76 4 9 -4.03188 -18.0606 -29.3015 0.06 
954 51 3 -8.69913 -10.0413 -27.1689 -0.13 
5554 302 11 -3.41551 -11.0827 -28.0047 -0.16 
2685 142 4 -0.421765 -12.5748 -29.3731 -0.17 
2691 142 7 -0.974641 -13.4373 -29.4927 0.13 
2692 142 7 -1.06123 -11.9223 -28.8169 0.13 
5544 302 12 -3.19621 -15.3683 -25.9292 1.02 
5545 302 13 -3.57244 -13.8845 -25.6813 -0.66 
5546 302 14 -2.60401 -15.7236 -27.1234 -0.53 
5547 302 14 -3.94452 -16.3906 -25.2773 -0.53 
5548 302 12 -3.12117 -12.6921 -26.5484 1.02 
5549 302 14 -1.87872 -13.031 -27.1158 -0.53 
5550 302 14 -3.08138 -11.5323 -25.7027 -0.53 
6380 358 10 -2.51017 -15.8077 -30.4061 0.35 
6381 358 11 -2.54368 -17.0878 -30.4824 -0.16 
6382 358 11 -1.71497 -15.3399 -29.4626 -0.16 
6383 358 11 -2.20377 -15.4805 -31.5662 -0.16 
6384 358 12 -3.84057 -15.0375 -30.232 1.02 
6385 358 13 -3.44613 -13.3907 -29.9786 -0.66 
6388 358 12 -3.58839 -11.9453 -30.4482 1.02 
6389 358 14 -2.71476 -12.6858 -30.9581 -0.53 
6390 358 14 -2.76253 -10.9774 -30.3824 -0.53 
9176 701 15 -3.54976 -17.2599 -32.8423 0 
9180 701 15 -1.07655 -17.2127 -32.7367 0 
9183 701 15 -0.793506 -13.637 -31.8654 0 
9233 701 17 -3.72835 -11.7146 -33.0255 0 
9237 701 15 -1.10158 -11.5861 -32.7022 0 
9580 701 15 -3.23476 -19.5431 -32.9748 0 
9585 701 18 -0.817056 -19.0358 -32.9413 0 
72 4 7 -1.743 -17.5044 -28.055 0.13 
65 4 4 -2.08452 -18.4927 -28.2083 -0.17 
71 4 8 -3.64427 -18.3508 -28.3427 -0.05 
1171 62 7 -0.756429 -16.8496 -26.5123 0.13 
73 4 7 -2.08257 -18.5862 -29.2626 0.13 
1169 62 6 -2.95023 -18.0804 -26.1713 0.21 
1164 62 3 -2.33495 -18.4867 -25.4012 -0.13 
1160 62 1 -0.98889 -18.5989 -25.3895 0.15 
60 4 1 -0.893917 -19.4489 -28.2673 0.15 
5543 302 11 -0.752268 -14.8114 -25.1082 -0.16 
5962 330 11 -14.8425 -5.286 -25.2223 -0.16 
6097 339 11 -12.5387 -5.90882 -25.2661 -0.16 
4894 258 11 -17.7349 -9.89429 -27.2204 -0.16 
6648 375 11 -13.3576 -0.973914 -29.295 -0.16 
4891 258 10 -16.8421 -9.75111 -28.2052 0.35 
4892 258 11 -17.405 -9.29034 -29.1744 -0.16 
4893 258 11 -15.9416 -8.99108 -27.8228 -0.16 
4950 262 14 -15.0427 -8.02473 -25.9766 -0.53 
5280 284 14 -13.0562 -9.32826 -27.881 -0.53 
5281 284 10 -11.8713 -9.03603 -25.8479 0.35 
5960 330 10 -15.5522 -5.0664 -26.2217 0.35 
5961 330 11 -16.3128 -6.02951 -26.3586 -0.16 
5963 330 11 -14.7606 -5.05617 -27.2316 -0.16 
5964 330 12 -16.3573 -3.6297 -25.9602 1.02 
5965 330 13 -15.1963 -2.66681 -25.43 -0.66 
5966 330 14 -17.0802 -3.31538 -27.0561 -0.53 
5968 330 12 -14.2556 -1.83175 -26.4102 1.02 
5969 330 14 -14.1329 -2.49114 -27.5096 -0.53 
5970 330 14 -12.9484 -1.66698 -25.9185 -0.53 
6501 366 11 -17.808 -7.46364 -27.4657 -0.16 
6506 366 14 -18.1802 -6.64872 -29.898 -0.53 
6635 375 10 -16.3117 -4.28933 -29.6068 0.35 
6636 375 11 -17.1422 -4.50426 -30.4319 -0.16 
6637 375 11 -16.7544 -4.98793 -28.5731 -0.16 
6638 375 11 -15.584 -5.28831 -29.6515 -0.16 
6639 375 12 -15.5886 -2.59152 -29.7467 1.02 
6640 375 13 -14.2848 -3.35305 -29.6928 -0.66 
6641 375 14 -15.9627 -1.64185 -30.5385 -0.53 
6642 375 14 -16.2698 -1.9183 -28.815 -0.53 
6643 375 12 -12.9539 -3.25851 -29.978 1.02 
6644 375 14 -13.6789 -3.60896 -30.9043 -0.53 
6645 375 14 -12.2731 -4.32912 -30.0815 -0.53 
6646 375 10 -12.3782 -1.83115 -29.4438 0.35 
7261 416 10 -13.6614 -9.65237 -30.4229 0.35 
7262 416 11 -14.2439 -9.72853 -31.5973 -0.16 
7263 416 11 -12.8946 -8.73365 -30.0085 -0.16 
7264 416 11 -14.5826 -9.22581 -29.6625 -0.16 
7606 439 10 -12.6262 -6.40062 -28.2616 0.35 
7607 439 11 -13.4931 -6.42905 -29.1355 -0.16 
7608 439 11 -12.4512 -5.23216 -27.7995 -0.16 
7609 439 11 -13.2444 -6.98858 -27.3463 -0.16 
9215 701 18 -18.2895 -8.41634 -32.0661 0 
9216 701 15 -16.4484 -8.71623 -31.3261 0 
9270 701 15 -16.1772 -6.92863 -32.7559 0 
9272 701 17 -17.25 -4.97943 -32.7305 0 
9275 701 15 -14.3302 -7.37518 -31.3816 0 
9277 701 15 -14.8612 -5.24871 -31.8854 0 
9281 701 15 -12.6816 -5.7501 -31.8574 0 
9328 701 15 -17.8457 -2.01639 -32.0651 0 
9333 701 15 -14.3012 -1.62905 -32.2296 0 
9337 701 15 -12.2503 -2.80685 -32.4368 0 
9617 701 16 -12.366 -8.27971 -32.0713 0 
9640 701 16 -15.8613 -3.29396 -32.1341 0 
6647 375 11 -11.8066 -2.08006 -28.2417 -0.16 
6649 375 11 -11.4951 -1.39198 -30.2024 -0.16 
6096 339 11 -11.4739 -4.12243 -25.7523 -0.16 
5284 284 11 -12.8197 -8.74623 -25.1666 -0.16 
5282 284 11 -11.4335 -7.90291 -25.9888 -0.16 
5973 330 11 -16.2261 -0.537083 -26.896 -0.16 
9618 701 18 -11.0527 -8.86896 -30.8537 0 
6804 386 12 -9.82591 -0.596147 -26.2471 1.02 
6805 386 13 -9.88398 -2.11453 -26.0996 -0.66 
7599 439 12 -9.76358 -5.06848 -29.7733 1.02 
7600 439 13 -10.4201 -6.3637 -29.7005 -0.66 
7601 439 14 -10.1108 -4.058 -28.9376 -0.53 
7602 439 14 -10.005 -4.15294 -30.5827 -0.53 
7603 439 12 -10.9864 -7.01445 -28.7041 1.02 
7604 439 14 -10.2843 -6.42419 -27.634 -0.53 
7605 439 14 -10.7437 -8.36951 -28.6856 -0.53 
9227 701 15 -9.66749 -9.01578 -32.3363 0 
9279 701 17 -10.6884 -6.89617 -31.8936 0 
9282 701 15 -10.9163 -4.55797 -32.6703 0 
9341 701 15 -9.84636 -2.15376 -31.8695 0 
960 51 6 -9.83007 -8.7264 -26.8671 0.21 
5283 284 11 -11.1232 -9.63783 -25.0257 -0.16 
961 51 7 -7.34134 -6.53703 -25.4092 0.13 
7189 411 11 -6.38624 -1.01069 -25.7988 -0.16 
965 51 7 -6.38642 -9.51018 -28.3843 0.13 
951 51 1 -8.1636 -8.13968 -26.1674 0.15 
952 51 2 -7.26908 -8.3934 -26.9397 -0.11 
953 51 1 -7.56021 -9.49642 -27.5335 0.15 
957 51 5 -6.5461 -7.67686 -27.3068 0.21 
958 51 4 -7.35859 -9.38445 -28.7727 -0.17 
962 51 7 -8.17228 -6.45469 -26.8192 0.13 
964 51 8 -7.90958 -8.04672 -29.2318 -0.05 
967 51 9 -8.40517 -8.04793 -30.1583 0.06 
968 51 9 -8.54269 -7.45174 -28.6675 0.06 
969 51 9 -6.99197 -7.37714 -29.4063 0.06 
5900 326 10 -5.16581 -5.36586 -26.667 0.35 
5901 326 11 -4.87964 -6.42536 -27.3435 -0.16 
5902 326 11 -6.39128 -5.25573 -26.7944 -0.16 
5904 326 12 -4.38713 -3.8485 -27.1098 1.02 
5905 326 13 -4.81721 -3.09804 -25.8671 -0.66 
5907 326 14 -5.32979 -3.35122 -27.8241 -0.53 
6808 386 12 -8.73129 -2.99855 -26.5932 1.02 
6809 386 14 -7.76808 -2.39268 -27.3119 -0.53 
6810 386 14 -8.99121 -4.33742 -26.834 -0.53 
6826 387 10 -4.14476 -8.74177 -25.8735 0.35 
6827 387 11 -4.62091 -8.74361 -27.0663 -0.16 
7595 439 10 -8.22204 -5.03032 -29.6778 0.35 
7596 439 11 -7.74776 -3.9194 -29.7485 -0.16 
7597 439 11 -7.89358 -5.80539 -30.414 -0.16 
7598 439 11 -7.82822 -5.49929 -28.586 -0.16 
8555 503 10 -4.97529 -4.57669 -30.0307 0.35 
8556 503 11 -4.66014 -5.40396 -30.8128 -0.16 
8557 503 11 -5.68897 -5.32972 -29.2585 -0.16 
8559 503 12 -5.01198 -2.70447 -30.1139 1.02 
8561 503 14 -4.80405 -1.74961 -30.733 -0.53 
8562 503 14 -6.2357 -2.22182 -29.9722 -0.53 
9231 701 15 -7.36301 -9.105 -31.7088 0 
9235 701 15 -5.47153 -9.14275 -32.8865 0 
9283 701 17 -8.32538 -7.21807 -32.4699 0 
9284 701 18 -9.31073 -5.67852 -31.9698 0 
9286 701 15 -8.6998 -4.02318 -32.4966 0 
9287 701 15 -6.15409 -7.10036 -31.3715 0 
9289 701 15 -6.77918 -4.99087 -32.2859 0 
9292 701 15 -5.09489 -6.72873 -33.3109 0 
9293 701 15 -4.65294 -4.66195 -32.9098 0 
9344 701 15 -5.94614 -2.87505 -32.4945 0 
9346 701 15 -7.64994 -1.67767 -31.7876 0 
9350 701 15 -4.7382 -0.93033 -32.8274 0 
9619 701 16 -5.34373 -8.84325 -30.1257 0 
956 51 4 -8.25344 -6.82665 -25.8576 -0.17 
5903 326 11 -5.17122 -5.73913 -25.4118 -0.16 
955 51 3 -9.06599 -9.05917 -26.4812 -0.13 
963 51 7 -9.09817 -6.38394 -25.454 0.13 
7188 411 11 -4.74179 -0.629167 -26.6378 -0.16 
8558 503 11 -3.92294 -4.83196 -29.476 -0.16 
6829 387 11 -3.7519 -7.54309 -25.5233 -0.16 
8567 503 11 -1.95721 -1.69135 -27.3541 -0.16 
6828 387 11 -2.96625 -9.22445 -25.9342 -0.16 
9620 701 18 -3.93817 -8.9699 -31.5334 0 
5906 326 14 -3.02536 -4.05707 -27.2811 -0.53 
6920 394 10 -0.609437 -6.7979 -26.6777 0.35 
6921 394 11 -0.657559 -7.94997 -27.1454 -0.16 
6923 394 11 -1.71353 -6.32742 -26.1376 -0.16 
7495 432 13 -0.855924 -5.66041 -30.5577 -0.66 
7498 432 12 -1.11181 -6.898 -30.2825 1.02 
7500 432 14 -1.7285 -7.95009 -30.5937 -0.53 
7501 432 10 -2.47218 -7.09399 -29.0396 0.35 
7502 432 11 -3.69138 -7.1143 -29.5057 -0.16 
7503 432 11 -2.63284 -6.27012 -28.1306 -0.16 
7504 432 11 -2.60464 -8.31055 -28.4097 -0.16 
7777 451 11 -0.84193 -3.52185 -25.7019 -0.16 
8560 503 13 -3.75072 -2.4167 -29.5048 -0.66 
8563 503 12 -2.47278 -2.41338 -29.7517 1.02 
8564 503 14 -2.26497 -3.3673 -30.4245 -0.53 
8565 503 14 -1.5003 -3.0512 -29.0807 -0.53 
9239 701 15 -2.17137 -9.64467 -32.0655 0 
9291 701 15 -3.24944 -7.13952 -32.1275 0 
9295 701 17 -0.900947 -8.03319 -32.9215 0 
9297 701 15 -2.57874 -5.04282 -31.9552 0 
9348 701 15 -3.45969 -2.82176 -32.4155 0 
9352 701 15 -1.29311 -2.33367 -32.1991 0 
9354 701 15 -2.48845 -0.571195 -32.4692 0 
8566 503 10 -1.96798 -1.26971 -28.6304 0.35 
8569 503 11 -0.907927 -0.909899 -28.9856 -0.16 
5913 326 11 -2.30546 -1.81977 -25.0636 -0.16 
5735 315 10 -13.5715 -13.5274 -17.9807 0.35 
5737 315 11 -14.7584 -13.9063 -18.2165 -0.16 
5738 315 11 -13.4882 -12.2503 -17.8938 -0.16 
5739 315 12 -12.5544 -14.1835 -19.2792 1.02 
5740 315 13 -13.1263 -13.4834 -20.4813 -0.66 
5741 315 14 -11.3765 -13.6374 -18.6569 -0.53 
5742 315 14 -12.6993 -15.5718 -18.9048 -0.53 
5743 315 12 -12.7016 -12.123 -21.1328 1.02 
5744 315 14 -12.2576 -11.3755 -19.9336 -0.53 
5745 315 14 -13.7185 -11.4824 -21.8028 -0.53 
6148 342 12 -16.2871 -16.5322 -16.9758 1.02 
6151 342 10 -16.5826 -16.1689 -18.6218 0.35 
6152 342 11 -17.0058 -14.9678 -18.674 -0.16 
6153 342 11 -17.5659 -16.9807 -19.0079 -0.16 
6154 342 11 -15.4533 -16.3555 -19.2613 -0.16 
6530 368 10 -16.762 -11.3299 -18.6933 0.35 
6531 368 11 -16.0223 -11.5781 -17.5641 -0.16 
6532 368 11 -17.4947 -12.3896 -18.6708 -0.16 
6534 368 12 -15.781 -11.1647 -20.2078 1.02 
6535 368 13 -15.6342 -12.7181 -20.4131 -0.66 
6536 368 14 -16.743 -10.3526 -20.8425 -0.53 
6537 368 14 -14.7484 -10.5059 -19.3907 -0.53 
6538 368 12 -16.3274 -13.4828 -21.6138 1.02 
6539 368 14 -17.4631 -12.6894 -21.4469 -0.53 
6540 368 14 -16.4158 -14.8622 -21.2026 -0.53 
6541 368 10 -15.7353 -13.1458 -23.0517 0.35 
6542 368 11 -14.4903 -13.5292 -23.157 -0.16 
6543 368 11 -15.8855 -11.8694 -23.1519 -0.16 
6544 368 11 -16.6452 -13.6972 -23.7961 -0.16 
8139 475 12 -11.6159 -16.0467 -22.4416 1.02 
8140 475 13 -12.7875 -15.4611 -23.2159 -0.66 
8141 475 14 -11.7181 -17.4214 -22.0378 -0.53 
8143 475 12 -13.3857 -16.1743 -24.5071 1.02 
8144 475 14 -12.6168 -17.3199 -24.7921 -0.53 
8146 475 10 -14.7501 -16.6464 -23.5276 0.35 
8147 475 11 -14.5154 -16.8164 -22.1939 -0.16 
8148 475 11 -15.2314 -17.7665 -23.8694 -0.16 
8149 475 11 -15.7309 -15.839 -23.4879 -0.16 
1964 104 5 -12.7494 -18.6853 -20.7889 0.21 
2084 110 7 -17.952 -15.6686 -23.1554 0.13 
2141 113 7 -17.6851 -19.001 -24.5843 0.13 
1973 104 7 -13.3683 -18.5855 -22.7768 0.13 
2082 110 7 -17.3754 -17.0116 -24.2128 0.13 
2073 110 2 -17.3145 -17.9501 -21.6834 -0.11 
2078 110 5 -16.3346 -17.6844 -21.9645 0.21 
2090 110 9 -15.1717 -18.3493 -20.5532 0.06 
1686 89 8 -13.4215 -18.4722 -18.1583 -0.05 
2074 110 1 -17.6391 -18.9949 -21.0452 0.15 
2077 110 4 -18.1537 -16.6988 -23.5694 -0.17 
2088 110 9 -15.9803 -18.7163 -19.0928 0.06 
1690 89 9 -13.3541 -17.6715 -17.4982 0.06 
1691 89 9 -13.5011 -17.9466 -19.1254 0.06 
6533 368 11 -17.505 -10.3522 -18.2702 -0.16 
2072 110 1 -18.2829 -17.6511 -22.4442 0.15 
5736 315 11 -13.1609 -13.9611 -16.8086 -0.16 
5747 315 11 -11.5648 -13.3058 -22.9776 -0.16 
1681 89 6 -11.5316 -17.2749 -17.0702 0.21 
1972 104 7 -14.8319 -19.3876 -22.4977 0.13 
2085 110 8 -15.631 -19.1162 -20.0665 -0.05 
5746 315 10 -11.3689 -12.4392 -22.143 0.35 
1550 82 7 -18.2462 -19.0512 -18.2443 0.13 
241 13 7 -11.6905 -11.1772 -16.8543 0.13 
1680 89 4 -12.3307 -19.5188 -18.068 -0.17 
1689 89 9 -14.2774 -19.0805 -18.0846 0.06 
2139 113 7 -16.6193 -19.5139 -23.3745 0.13 
4115 217 7 -18.4076 -14.4996 -24.9665 0.13 
1675 89 1 -11.0087 -18.8911 -18.2989 0.15 
1676 89 3 -10.9299 -17.6732 -17.7925 -0.13 
5749 315 11 -11.1391 -11.4796 -22.914 -0.16 
1674 89 2 -10.131 -19.0521 -19.3253 -0.11 
1677 89 3 -10.35 -17.1212 -18.8081 -0.13 
1682 89 6 -10.6208 -16.2505 -19.1759 0.21 
1673 89 1 -9.60604 -17.9451 -19.6074 0.15 
8142 475 14 -11.273 -15.377 -21.2078 -0.53 
5748 315 11 -10.3107 -12.8075 -21.416 -0.16 
8135 475 10 -10.0966 -15.7113 -23.2726 0.35 
8136 475 11 -10.2348 -14.882 -24.2017 -0.16 
8137 475 11 -9.47885 -16.7747 -23.5917 -0.16 
1683 89 7 -9.51375 -17.2798 -21.4507 0.13 
1968 104 7 -11.0086 -19.2518 -23.7016 0.13 
240 13 7 -10.5101 -11.7899 -17.8501 0.13 
1969 104 7 -9.93514 -18.862 -22.6286 0.13 
239 13 7 -10.1194 -10.4189 -16.9631 0.13 
234 13 4 -10.5919 -11.3409 -16.857 -0.17 
1457 77 7 -10.0977 -10.0638 -21.6272 0.13 
1455 77 7 -9.18069 -11.1105 -22.3069 0.13 
3455 182 7 -9.44602 -11.2759 -19.4573 0.13 
4226 223 4 -4.65653 -11.0628 -21.2264 -0.17 
4232 223 8 -4.46542 -12.292 -21.9183 -0.05 
4233 223 7 -5.58071 -10.5815 -21.393 0.13 
4237 223 9 -5.19454 -13.0317 -21.8304 0.06 
5810 320 10 -8.47899 -14.8126 -18.5528 0.35 
5811 320 11 -9.15718 -15.3023 -17.51 -0.16 
5812 320 11 -9.16883 -14.6997 -19.6922 -0.16 
5813 320 11 -8.44539 -13.5352 -18.0872 -0.16 
5814 320 12 -6.79905 -15.4803 -18.7823 1.02 
5815 320 13 -6.54358 -14.8481 -17.2499 -0.66 
5816 320 14 -6.50665 -16.8792 -18.7263 -0.53 
5817 320 14 -6.2587 -14.5344 -19.645 -0.53 
6395 359 10 -6.21623 -16.3385 -22.4076 0.35 
6396 359 11 -6.77456 -17.0069 -23.3869 -0.16 
6397 359 11 -6.99165 -15.4067 -21.9101 -0.16 
6398 359 11 -6.15839 -17.1994 -21.4546 -0.16 
6399 359 12 -4.59599 -15.7634 -22.6204 1.02 
6400 359 13 -4.13382 -15.2122 -21.1598 -0.66 
6402 359 14 -4.76715 -14.6626 -23.4504 -0.53 
6815 387 10 -7.46382 -12.4278 -23.7455 0.35 
6816 387 11 -6.97287 -11.8718 -22.6199 -0.16 
6817 387 11 -7.02257 -13.5373 -23.328 -0.16 
6818 387 11 -8.80735 -12.5331 -23.754 -0.16 
8138 475 11 -9.27424 -15.1402 -22.4696 -0.16 
6821 387 14 -5.50143 -12.3234 -24.9045 -0.53 
3454 182 7 -8.48755 -11.1055 -17.7941 0.13 
3456 182 9 -7.37424 -12.5107 -19.8086 0.06 
3447 182 4 -8.63206 -10.8417 -18.8399 -0.17 
3453 182 8 -7.29192 -11.5388 -19.3063 -0.05 
3457 182 9 -7.12118 -11.0072 -20.1604 0.06 
3458 182 9 -6.56292 -11.5688 -18.5455 0.06 
1678 89 4 -8.87231 -17.6107 -20.7179 -0.17 
1685 89 7 -8.32114 -18.3793 -21.1963 0.13 
2877 152 4 -5.12682 -19.1867 -17.6226 -0.17 
2885 152 7 -6.00208 -18.6249 -17.3802 0.13 
2876 152 5 -6.76262 -18.7106 -19.9293 0.21 
1684 89 7 -8.26143 -16.7115 -20.6213 0.13 
1450 77 4 -9.0072 -10.3603 -21.6754 -0.17 
1456 77 7 -8.65655 -11.3045 -21.1703 0.13 
4235 223 9 -4.48209 -12.0404 -22.9885 0.06 
4221 223 1 -4.30163 -11.3627 -19.8643 0.15 
2882 152 7 -7.1715 -18.9846 -22.6309 0.13 
4220 223 2 -4.16197 -12.4984 -19.272 -0.11 
4223 223 3 -4.18497 -10.8813 -17.7647 -0.13 
4222 223 3 -4.23616 -10.3336 -18.9725 -0.13 
4228 223 6 -4.10678 -10.2642 -16.9556 0.21 
2871 152 2 -6.17614 -19.4121 -19.906 -0.11 
2884 152 7 -4.43629 -18.3758 -17.8381 0.13 
1454 77 6 -9.05907 -10.3949 -24.4161 0.21 
2880 152 7 -5.60669 -19.4136 -23.1664 0.13 
4229 223 7 -4.02141 -13.8149 -17.0388 0.13 
4219 223 1 -3.87344 -12.2373 -18.015 0.15 
1168 62 6 -3.85274 -18.8782 -24.1879 0.21 
4225 223 5 -3.99356 -13.3264 -19.8466 0.21 
4234 223 7 -3.91656 -10.4856 -21.8034 0.13 
4230 223 7 -2.35263 -13.4544 -17.5051 0.13 
4224 223 4 -3.27116 -13.094 -17.0508 -0.17 
6404 359 14 -3.98676 -17.4972 -20.084 -0.53 
4236 223 9 -3.48006 -12.8259 -21.8479 0.06 
5542 302 11 -2.2259 -14.8575 -23.5337 -0.16 
6401 359 14 -3.93766 -17.0231 -22.8022 -0.53 
6403 359 12 -3.57773 -16.1287 -20.1349 1.02 
6405 359 14 -3.7196 -15.5559 -18.7586 -0.53 
6406 359 10 -1.90996 -15.9693 -20.2495 0.35 
6407 359 11 -1.40787 -14.802 -20.209 -0.16 
6408 359 11 -1.34403 -16.4148 -21.3476 -0.16 
6409 359 11 -1.45044 -16.5417 -19.1107 -0.16 
6995 399 10 -1.16416 -12.2164 -23.7314 0.35 
6997 399 11 -2.39472 -12.5767 -23.6783 -0.16 
6998 399 11 -0.525198 -13.1601 -23.0759 -0.16 
6999 399 12 -1.26174 -10.7076 -23.0832 1.02 
7000 399 13 -1.65415 -11.0947 -21.53 -0.66 
7003 399 12 -0.774012 -11.6774 -20.5735 1.02 
7005 399 14 -1.28315 -12.4376 -19.4328 -0.53 
1163 62 3 -2.83258 -18.823 -24.3021 -0.13 
1175 62 7 -1.9202 -18.1772 -22.1426 0.13 
1167 62 4 -1.75681 -19.2315 -22.1135 -0.17 
5540 302 10 -1.87097 -15.3922 -24.6728 0.35 
5541 302 11 -1.55854 -16.4017 -23.9304 -0.16 
1162 62 1 -1.80251 -19.2218 -23.536 0.15 
4399 232 6 -1.82678 -10.6213 -17.8165 0.21 
1161 62 2 -0.752164 -19.2933 -24.3583 -0.11 
1176 62 9 -3.76584 -19.22 -21.8881 0.06 
2121 112 7 -1.60682 -18.9304 -19.5702 0.13 