ITEM: TIMESTEP
5000000
ITEM: NUMBER OF ATOMS
8030
ITEM: BOX BOUNDS pp pp ff
-1.8517606659999998e+01 1.7699648337999999e+01
-1.9567289658000000e+01 1.8632104154000000e+01
-5.0000000000000000e+01 5.0000000000000000e+01
ITEM: ATOMS id mol type x y z q 
6145 701 12 -15.8286 -17.0099 -36.4761 0 
6146 701 12 -17.0566 -16.3009 -36.4761 0 
6147 701 12 -17.0566 -14.8829 -36.4761 0 
6148 701 12 -15.8286 -14.1739 -36.4761 0 
6149 701 14 -13.3726 -17.0099 -36.4761 0 
6150 701 15 -13.3726 -18.1199 -36.4761 0 
6151 701 12 -14.6006 -16.3009 -36.4761 0 
6152 701 12 -14.6006 -14.8829 -36.4761 0 
6153 701 12 -13.3726 -14.1739 -36.4761 0 
6155 701 12 -12.1446 -16.3009 -36.4761 0 
6156 701 14 -12.1446 -14.8829 -36.4761 0 
6205 701 12 -15.8286 -12.7559 -36.4761 0 
6206 701 12 -17.0566 -12.0469 -36.4761 0 
6207 701 12 -17.0566 -10.6289 -36.4761 0 
6209 701 12 -13.3726 -12.7559 -36.4761 0 
6210 701 12 -14.6006 -12.0469 -36.4761 0 
6211 701 12 -14.6006 -10.6289 -36.4761 0 
6214 701 12 -12.1446 -12.0469 -36.4761 0 
6215 701 12 -12.1446 -10.6289 -36.4761 0 
6154 701 12 -10.9166 -17.0099 -36.4761 0 
6157 701 12 -10.9166 -14.1739 -36.4761 0 
6158 701 14 -8.46061 -17.0099 -36.4761 0 
6159 701 15 -8.46061 -18.1199 -36.4761 0 
6160 701 12 -9.68861 -16.3009 -36.4761 0 
6161 701 12 -9.68861 -14.8829 -36.4761 0 
6162 701 12 -8.46061 -14.1739 -36.4761 0 
6163 701 12 -6.00461 -17.0099 -36.4761 0 
6164 701 12 -7.23261 -16.3009 -36.4761 0 
6165 701 12 -7.23261 -14.8829 -36.4761 0 
6166 701 12 -6.00461 -14.1739 -36.4761 0 
6168 701 12 -4.77661 -16.3009 -36.4761 0 
6169 701 12 -4.77661 -14.8829 -36.4761 0 
6213 701 12 -10.9166 -12.7559 -36.4761 0 
6217 701 12 -8.46061 -12.7559 -36.4761 0 
6218 701 12 -9.68861 -12.0469 -36.4761 0 
6219 701 12 -9.68861 -10.6289 -36.4761 0 
6221 701 12 -6.00461 -12.7559 -36.4761 0 
6222 701 12 -7.23261 -12.0469 -36.4761 0 
6223 701 12 -7.23261 -10.6289 -36.4761 0 
6226 701 12 -4.77661 -12.0469 -36.4761 0 
6227 701 12 -4.77661 -10.6289 -36.4761 0 
7082 701 13 -5.75061 -12.2259 -37.8581 0 
6167 701 14 -3.54861 -17.0099 -36.4761 0 
6170 701 12 -3.54861 -14.1739 -36.4761 0 
6171 701 12 -1.09261 -17.0099 -36.4761 0 
6172 701 12 -2.32061 -16.3009 -36.4761 0 
6173 701 12 -2.32061 -14.8829 -36.4761 0 
6174 701 12 -1.09261 -14.1739 -36.4761 0 
6175 701 14 1.36339 -17.0099 -36.4761 0 
6176 701 15 1.36339 -18.1199 -36.4761 0 
6177 701 12 0.135393 -16.3009 -36.4761 0 
6178 701 12 0.135393 -14.8829 -36.4761 0 
6179 701 12 1.36339 -14.1739 -36.4761 0 
6181 701 12 2.59139 -16.3009 -36.4761 0 
6182 701 12 2.59139 -14.8829 -36.4761 0 
6225 701 12 -3.54861 -12.7559 -36.4761 0 
6229 701 12 -1.09261 -12.7559 -36.4761 0 
6230 701 12 -2.32061 -12.0469 -36.4761 0 
6231 701 12 -2.32061 -10.6289 -36.4761 0 
6233 701 12 1.36339 -12.7559 -36.4761 0 
6234 701 12 0.135393 -12.0469 -36.4761 0 
6235 701 12 0.135393 -10.6289 -36.4761 0 
6238 701 12 2.59139 -12.0469 -36.4761 0 
6239 701 12 2.59139 -10.6289 -36.4761 0 
6180 701 12 3.81939 -17.0099 -36.4761 0 
6183 701 12 3.81939 -14.1739 -36.4761 0 
6184 701 14 6.27539 -17.0099 -36.4761 0 
6185 701 15 6.27539 -18.1199 -36.4761 0 
6186 701 12 5.04739 -16.3009 -36.4761 0 
6187 701 12 5.04739 -14.8829 -36.4761 0 
6188 701 12 6.27539 -14.1739 -36.4761 0 
6189 701 12 8.73139 -17.0099 -36.4761 0 
6190 701 12 7.50339 -16.3009 -36.4761 0 
6191 701 12 7.50339 -14.8829 -36.4761 0 
6192 701 12 8.73139 -14.1739 -36.4761 0 
6194 701 12 9.96039 -16.3009 -36.4761 0 
6195 701 12 9.96039 -14.8829 -36.4761 0 
6237 701 12 3.81939 -12.7559 -36.4761 0 
6241 701 12 6.27539 -12.7559 -36.4761 0 
6242 701 12 5.04739 -12.0469 -36.4761 0 
6243 701 14 5.04739 -10.6289 -36.4761 0 
6244 701 15 6.00839 -10.0739 -36.4761 0 
6245 701 12 8.73139 -12.7559 -36.4761 0 
6246 701 12 7.50339 -12.0469 -36.4761 0 
6247 701 14 7.50339 -10.6289 -36.4761 0 
6250 701 12 9.96039 -12.0469 -36.4761 0 
6251 701 12 9.96039 -10.6289 -36.4761 0 
6193 701 12 11.1884 -17.0099 -36.4761 0 
6196 701 12 11.1884 -14.1739 -36.4761 0 
6197 701 14 13.6444 -17.0099 -36.4761 0 
6198 701 12 12.4164 -16.3009 -36.4761 0 
6199 701 12 12.4164 -14.8829 -36.4761 0 
6200 701 12 13.6444 -14.1739 -36.4761 0 
6201 701 12 16.1004 -17.0099 -36.4761 0 
6202 701 12 14.8724 -16.3009 -36.4761 0 
6203 701 12 14.8724 -14.8829 -36.4761 0 
6204 701 12 16.1004 -14.1739 -36.4761 0 
6249 701 12 11.1884 -12.7559 -36.4761 0 
6253 701 14 13.6444 -12.7559 -36.4761 0 
6254 701 12 12.4164 -12.0469 -36.4761 0 
6255 701 12 12.4164 -10.6289 -36.4761 0 
6257 701 14 16.1004 -12.7559 -36.4761 0 
6258 701 12 14.8724 -12.0469 -36.4761 0 
6259 701 12 14.8724 -10.6289 -36.4761 0 
6208 701 12 -15.8286 -9.91989 -36.4761 0 
6212 701 12 -13.3726 -9.91989 -36.4761 0 
6261 701 12 -15.8286 -8.50189 -36.4761 0 
6262 701 12 -17.0566 -7.79289 -36.4761 0 
6263 701 12 -17.0566 -6.37489 -36.4761 0 
6264 701 12 -15.8286 -5.66589 -36.4761 0 
6265 701 12 -13.3726 -8.50189 -36.4761 0 
6266 701 12 -14.6006 -7.79289 -36.4761 0 
6267 701 12 -14.6006 -6.37489 -36.4761 0 
6268 701 12 -13.3726 -5.66589 -36.4761 0 
6270 701 12 -12.1446 -7.79289 -36.4761 0 
6271 701 12 -12.1446 -6.37489 -36.4761 0 
6317 701 12 -15.8286 -4.24789 -36.4761 0 
6318 701 12 -17.0566 -3.53889 -36.4761 0 
6319 701 12 -17.0566 -2.12089 -36.4761 0 
6320 701 12 -15.8286 -1.41189 -36.4761 0 
6321 701 12 -13.3726 -4.24789 -36.4761 0 
6322 701 12 -14.6006 -3.53889 -36.4761 0 
6323 701 12 -14.6006 -2.12089 -36.4761 0 
6324 701 12 -13.3726 -1.41189 -36.4761 0 
6326 701 12 -12.1446 -3.53889 -36.4761 0 
6327 701 12 -12.1446 -2.12089 -36.4761 0 
7086 701 13 -15.8646 -4.41289 -37.8681 0 
6216 701 12 -10.9166 -9.91989 -36.4761 0 
6220 701 12 -8.46061 -9.91989 -36.4761 0 
6224 701 12 -6.00461 -9.91989 -36.4761 0 
6269 701 12 -10.9166 -8.50189 -36.4761 0 
6272 701 12 -10.9166 -5.66589 -36.4761 0 
6273 701 12 -8.46061 -8.50189 -36.4761 0 
6274 701 12 -9.68861 -7.79289 -36.4761 0 
6275 701 12 -9.68861 -6.37489 -36.4761 0 
6276 701 12 -8.46061 -5.66589 -36.4761 0 
6277 701 12 -6.00461 -8.50189 -36.4761 0 
6278 701 12 -7.23261 -7.79289 -36.4761 0 
6279 701 12 -7.23261 -6.37489 -36.4761 0 
6280 701 12 -6.00461 -5.66589 -36.4761 0 
6282 701 12 -4.77661 -7.79289 -36.4761 0 
6283 701 12 -4.77661 -6.37489 -36.4761 0 
6325 701 12 -10.9166 -4.24789 -36.4761 0 
6328 701 12 -10.9166 -1.41189 -36.4761 0 
6329 701 12 -8.46061 -4.24789 -36.4761 0 
6330 701 12 -9.68861 -3.53889 -36.4761 0 
6331 701 12 -9.68861 -2.12089 -36.4761 0 
6332 701 12 -8.46061 -1.41189 -36.4761 0 
6333 701 14 -6.00461 -4.24789 -36.4761 0 
6334 701 12 -7.23261 -3.53889 -36.4761 0 
6335 701 12 -7.23261 -2.12089 -36.4761 0 
6336 701 12 -6.00461 -1.41189 -36.4761 0 
6338 701 12 -4.77661 -3.53889 -36.4761 0 
6339 701 12 -4.77661 -2.12089 -36.4761 0 
7075 701 13 -8.69261 -2.02489 -37.5381 0 
7076 701 15 -7.58261 -2.02489 -37.5381 0 
6228 701 12 -3.54861 -9.91989 -36.4761 0 
6232 701 12 -1.09261 -9.91989 -36.4761 0 
6236 701 12 1.36339 -9.91989 -36.4761 0 
6281 701 12 -3.54861 -8.50189 -36.4761 0 
6284 701 12 -3.54861 -5.66589 -36.4761 0 
6285 701 12 -1.09261 -8.50189 -36.4761 0 
6286 701 12 -2.32061 -7.79289 -36.4761 0 
6287 701 12 -2.32061 -6.37489 -36.4761 0 
6288 701 12 -1.09261 -5.66589 -36.4761 0 
6289 701 12 1.36339 -8.50189 -36.4761 0 
6290 701 12 0.135393 -7.79289 -36.4761 0 
6291 701 12 0.135393 -6.37489 -36.4761 0 
6292 701 12 1.36339 -5.66589 -36.4761 0 
6294 701 12 2.59139 -7.79289 -36.4761 0 
6295 701 12 2.59139 -6.37489 -36.4761 0 
6337 701 12 -3.54861 -4.24789 -36.4761 0 
6340 701 14 -3.54861 -1.41189 -36.4761 0 
6341 701 12 -1.09261 -4.24789 -36.4761 0 
6342 701 12 -2.32061 -3.53889 -36.4761 0 
6343 701 12 -2.32061 -2.12089 -36.4761 0 
6344 701 12 -1.09261 -1.41189 -36.4761 0 
6345 701 12 1.36339 -4.24789 -36.4761 0 
6346 701 12 0.135393 -3.53889 -36.4761 0 
6347 701 12 0.135393 -2.12089 -36.4761 0 
6348 701 12 1.36339 -1.41189 -36.4761 0 
6350 701 12 2.59139 -3.53889 -36.4761 0 
6351 701 12 2.59139 -2.12089 -36.4761 0 
7073 701 13 -0.629607 -2.06289 -37.5151 0 
7074 701 15 0.480393 -2.06289 -37.5151 0 
6240 701 12 3.81939 -9.91989 -36.4761 0 
6248 701 12 8.73139 -9.91989 -36.4761 0 
6293 701 12 3.81939 -8.50189 -36.4761 0 
6296 701 12 3.81939 -5.66589 -36.4761 0 
6297 701 14 6.27539 -8.50189 -36.4761 0 
6298 701 12 5.04739 -7.79289 -36.4761 0 
6299 701 12 5.04739 -6.37489 -36.4761 0 
6300 701 12 6.27539 -5.66589 -36.4761 0 
6301 701 12 8.73139 -8.50189 -36.4761 0 
6302 701 12 7.50339 -7.79289 -36.4761 0 
6303 701 12 7.50339 -6.37489 -36.4761 0 
6304 701 12 8.73139 -5.66589 -36.4761 0 
6306 701 12 9.96039 -7.79289 -36.4761 0 
6307 701 12 9.96039 -6.37489 -36.4761 0 
6349 701 12 3.81939 -4.24789 -36.4761 0 
6352 701 12 3.81939 -1.41189 -36.4761 0 
6353 701 14 6.27539 -4.24789 -36.4761 0 
6354 701 12 5.04739 -3.53889 -36.4761 0 
6355 701 12 5.04739 -2.12089 -36.4761 0 
6356 701 12 6.27539 -1.41189 -36.4761 0 
6357 701 12 8.73139 -4.24789 -36.4761 0 
6358 701 12 7.50339 -3.53889 -36.4761 0 
6359 701 12 7.50339 -2.12089 -36.4761 0 
6360 701 12 8.73139 -1.41189 -36.4761 0 
6362 701 12 9.96039 -3.53889 -36.4761 0 
6363 701 12 9.96039 -2.12089 -36.4761 0 
7071 701 13 9.26639 -2.43389 -37.7111 0 
7072 701 15 10.3764 -2.43389 -37.7111 0 
7083 701 13 3.38039 -2.70689 -37.8331 0 
6252 701 12 11.1884 -9.91989 -36.4761 0 
6256 701 12 13.6444 -9.91989 -36.4761 0 
6260 701 12 16.1004 -9.91989 -36.4761 0 
6305 701 12 11.1884 -8.50189 -36.4761 0 
6308 701 12 11.1884 -5.66589 -36.4761 0 
6309 701 12 13.6444 -8.50189 -36.4761 0 
6310 701 12 12.4164 -7.79289 -36.4761 0 
6311 701 12 12.4164 -6.37489 -36.4761 0 
6312 701 12 13.6444 -5.66589 -36.4761 0 
6313 701 14 16.1004 -8.50189 -36.4761 0 
6314 701 12 14.8724 -7.79289 -36.4761 0 
6315 701 12 14.8724 -6.37489 -36.4761 0 
6316 701 12 16.1004 -5.66589 -36.4761 0 
6361 701 12 11.1884 -4.24789 -36.4761 0 
6364 701 12 11.1884 -1.41189 -36.4761 0 
6365 701 12 13.6444 -4.24789 -36.4761 0 
6366 701 12 12.4164 -3.53889 -36.4761 0 
6367 701 12 12.4164 -2.12089 -36.4761 0 
6368 701 12 13.6444 -1.41189 -36.4761 0 
6369 701 14 16.1004 -4.24789 -36.4761 0 
6370 701 12 14.8724 -3.53889 -36.4761 0 
6371 701 12 14.8724 -2.12089 -36.4761 0 
6372 701 12 16.1004 -1.41189 -36.4761 0 
6595 701 12 -15.8286 -15.5919 -33.1261 0 
6596 701 12 -17.0566 -14.8829 -33.1261 0 
6597 701 14 -17.0566 -13.4649 -33.1261 0 
6598 701 15 -18.0176 -12.9099 -33.1261 0 
6599 701 12 -15.8286 -12.7559 -33.1261 0 
6600 701 12 -13.3726 -15.5919 -33.1261 0 
6601 701 12 -14.6006 -14.8829 -33.1261 0 
6602 701 12 -14.6006 -13.4649 -33.1261 0 
6603 701 12 -13.3726 -12.7559 -33.1261 0 
6605 701 12 -12.1446 -14.8829 -33.1261 0 
6606 701 12 -12.1446 -13.4649 -33.1261 0 
6652 701 12 -15.8286 -11.3379 -33.1261 0 
6653 701 12 -17.0566 -10.6289 -33.1261 0 
6657 701 12 -13.3726 -11.3379 -33.1261 0 
6658 701 12 -14.6006 -10.6289 -33.1261 0 
6662 701 14 -12.1446 -10.6289 -33.1261 0 
6135 511 10 -16.2969 -10.9148 -29.2924 0.96 
6136 511 11 -16.0183 -12.2446 -29.6126 -0.49 
2300 122 1 -12.0959 -12.9232 -29.4831 0.15 
2301 122 2 -12.7253 -11.8502 -29.053 -0.11 
2306 122 5 -13.7262 -11.7969 -28.6059 0.21 
2311 122 7 -13.7764 -14.2067 -29.2054 0.13 
2305 122 4 -12.7253 -14.2926 -29.5319 -0.17 
2312 122 7 -12.8233 -14.9147 -30.4616 0.13 
2310 122 7 -12.2611 -14.802 -28.8038 0.13 
5757 435 11 -16.2585 -18.1542 -26.003 -0.49 
5759 435 11 -18.111 -18.7084 -27.1289 -0.49 
4652 245 7 -17.6326 -15.4745 -27.818 0.13 
2302 122 1 -11.8988 -10.885 -28.9997 0.15 
2555 135 6 -12.7247 -17.2858 -26.3108 0.21 
6139 511 11 -16.2747 -10.7399 -27.892 -0.49 
1613 85 9 -14.8154 -12.5985 -25.2125 0.06 
2550 135 3 -11.724 -17.3582 -25.9376 -0.13 
5489 381 11 -11.4325 -12.8912 -25.7773 -0.49 
3952 208 9 -16.604 -19.0137 -29.8094 0.06 
5755 435 10 -17.6043 -18.2574 -25.8623 0.96 
5756 435 11 -18.2798 -17.0488 -25.6101 -0.49 
1614 85 9 -16.4014 -11.9441 -25.384 0.06 
4651 245 7 -17.6746 -14.738 -29.5201 0.13 
4644 245 4 -18.2706 -15.1547 -28.6637 -0.17 
6137 511 11 -15.3136 -10.1254 -29.8701 -0.49 
2316 122 9 -11.8485 -10.0239 -26.506 0.06 
6138 511 11 -17.5673 -10.7154 -29.7771 -0.49 
1611 85 7 -15.9799 -14.2609 -26.3782 0.13 
1604 85 4 -16.3335 -14.0609 -25.3898 -0.17 
1612 85 7 -17.4525 -14.0208 -25.5339 0.13 
1605 85 6 -13.9882 -15.4652 -25.2162 0.21 
2303 122 3 -10.738 -11.3586 -29.5208 -0.13 
2551 135 3 -10.7729 -16.3873 -25.5937 -0.13 
2304 122 3 -10.7914 -12.6423 -29.8455 -0.13 
5626 409 11 -8.13041 -16.6659 -28.2439 -0.49 
2309 122 6 -10.0104 -13.338 -30.1212 0.21 
2548 135 2 -9.72951 -18.3401 -25.96 -0.11 
6604 701 12 -10.9166 -15.5919 -33.1261 0 
6607 701 12 -10.9166 -12.7559 -33.1261 0 
6608 701 12 -8.46061 -15.5919 -33.1261 0 
6609 701 12 -9.68861 -14.8829 -33.1261 0 
6610 701 12 -9.68861 -13.4649 -33.1261 0 
6611 701 12 -8.46061 -12.7559 -33.1261 0 
6612 701 12 -6.00461 -15.5919 -33.1261 0 
6613 701 12 -7.23261 -14.8829 -33.1261 0 
6614 701 12 -7.23261 -13.4649 -33.1261 0 
6615 701 12 -6.00461 -12.7559 -33.1261 0 
6617 701 12 -4.77661 -14.8829 -33.1261 0 
6618 701 12 -4.77661 -13.4649 -33.1261 0 
6661 701 12 -10.9166 -11.3379 -33.1261 0 
6665 701 12 -8.46061 -11.3379 -33.1261 0 
6666 701 12 -9.68861 -10.6289 -33.1261 0 
6669 701 12 -6.00461 -11.3379 -33.1261 0 
6670 701 12 -7.23261 -10.6289 -33.1261 0 
6674 701 12 -4.77661 -10.6289 -33.1261 0 
3107 164 6 -7.63117 -13.8254 -28.3615 0.21 
5629 409 11 -9.83644 -15.2068 -28.4156 -0.49 
5625 409 10 -9.09506 -16.1101 -29.0817 0.96 
2308 122 6 -9.88221 -10.7276 -29.5311 0.21 
3102 164 3 -6.68004 -13.5169 -27.8755 -0.13 
3101 164 3 -6.41862 -13.1886 -26.5904 -0.13 
3100 164 1 -5.12061 -12.879 -26.4453 0.15 
3098 164 1 -5.45096 -13.1866 -28.5289 0.15 
5627 409 11 -8.44686 -15.5019 -30.0893 -0.49 
3099 164 2 -4.53322 -13.1669 -27.5472 -0.11 
3108 164 7 -4.85226 -12.722 -30.5499 0.13 
3103 164 4 -5.234 -13.5698 -29.9678 -0.17 
3109 164 7 -4.52081 -14.332 -29.9749 0.13 
3110 164 7 -6.10413 -13.9959 -30.4412 0.13 
360 19 9 -6.57642 -18.5577 -29.1454 0.06 
361 19 9 -4.98964 -18.5793 -29.9702 0.06 
2547 135 1 -9.57921 -17.0694 -25.5707 0.15 
5628 409 11 -9.955 -17.1066 -29.5099 -0.49 
359 19 9 -6.60362 -19.0679 -30.8385 0.06 
356 19 8 -6.02056 -19.0708 -29.9333 -0.05 
5486 381 11 -9.20049 -12.4057 -25.7415 -0.49 
3106 164 6 -7.07653 -13.2308 -25.7282 0.21 
2549 135 1 -10.992 -18.5376 -26.0946 0.15 
2557 135 7 -7.4678 -16.7841 -25.9026 0.13 
2552 135 4 -8.30207 -16.4032 -25.2649 -0.17 
2556 135 6 -10.8955 -15.3191 -25.4932 0.21 
3324 175 9 -6.00766 -10.072 -27.9455 0.06 
3105 164 4 -4.52735 -12.641 -25.0485 -0.17 
2553 135 5 -9.05525 -19.1094 -26.0738 0.21 
2558 135 7 -8.30858 -15.2992 -25.431 0.13 
2896 153 4 0.489544 -10.6345 -25.307 -0.17 
3104 164 5 -3.44566 -13.2242 -27.6963 0.21 
3472 183 8 -2.80855 -15.6724 -26.3207 -0.05 
5772 438 11 -3.62874 -10.6399 -28.4545 -0.49 
3476 183 9 -2.52325 -15.0545 -27.1739 0.06 
3473 183 7 -1.32115 -17.3234 -26.7044 0.13 
5377 359 11 -1.23346 -18.2364 -30.4866 -0.49 
6616 701 12 -3.54861 -15.5919 -33.1261 0 
6619 701 12 -3.54861 -12.7559 -33.1261 0 
6620 701 12 -1.09261 -15.5919 -33.1261 0 
6621 701 12 -2.32061 -14.8829 -33.1261 0 
6622 701 12 -2.32061 -13.4649 -33.1261 0 
6623 701 12 -1.09261 -12.7559 -33.1261 0 
6624 701 12 1.36339 -15.5919 -33.1261 0 
6625 701 12 0.135393 -14.8829 -33.1261 0 
6626 701 12 0.135393 -13.4649 -33.1261 0 
6627 701 12 1.36339 -12.7559 -33.1261 0 
6629 701 12 2.59139 -14.8829 -33.1261 0 
6630 701 12 2.59139 -13.4649 -33.1261 0 
6673 701 14 -3.54861 -11.3379 -33.1261 0 
6677 701 12 -1.09261 -11.3379 -33.1261 0 
6678 701 12 -2.32061 -10.6289 -33.1261 0 
6681 701 12 1.36339 -11.3379 -33.1261 0 
6682 701 12 0.135393 -10.6289 -33.1261 0 
6686 701 12 2.59139 -10.6289 -33.1261 0 
667 36 2 0.569237 -12.0452 -29.9181 -0.11 
679 36 8 0.400002 -15.6624 -29.465 -0.05 
683 36 9 -0.0233482 -16.1508 -30.3816 0.06 
673 36 4 -0.152601 -14.2851 -29.2931 -0.17 
680 36 7 -0.685097 -14.1236 -28.3573 0.13 
682 36 9 0.135579 -16.369 -28.6309 0.06 
668 36 1 0.853198 -13.2233 -29.4649 0.15 
684 36 9 1.48227 -15.8219 -29.4902 0.06 
672 36 5 -0.0755255 -11.8017 -30.7522 0.21 
5379 359 11 -0.333659 -18.5492 -28.3388 -0.49 
681 36 7 -0.938902 -14.0189 -29.9447 0.13 
5376 359 11 0.784112 -19.5527 -30.1847 -0.49 
669 36 3 2.06621 -13.0702 -28.806 -0.13 
5773 438 11 -1.34995 -11.0005 -28.1375 -0.49 
5770 438 10 -2.3933 -11.0223 -29.0115 0.96 
666 36 1 1.38861 -11.1649 -29.4273 0.15 
670 36 3 2.37778 -11.7841 -28.7427 -0.13 
3116 164 9 -2.53096 -11.9294 -25.6502 0.06 
5771 438 11 -2.50094 -12.262 -29.6331 -0.49 
3474 183 7 -2.85344 -17.5907 -27.3885 0.13 
334 18 7 3.04375 -17.7389 -29.6794 0.13 
3466 183 4 -2.38305 -17.1835 -26.4981 -0.17 
3461 183 1 -2.58436 -18.0102 -25.335 0.15 
674 36 6 2.68781 -13.924 -28.5688 0.21 
2903 153 7 -0.208143 -11.481 -25.3337 0.13 
330 18 5 2.22331 -17.0095 -26.4777 0.21 
325 18 2 2.50366 -17.9653 -26.7366 -0.11 
3477 183 9 -3.8746 -15.6754 -26.0598 0.06 
2906 153 9 2.2997 -11.9321 -25.7089 0.06 
5375 359 10 -0.471577 -19.1132 -29.6294 0.96 
3111 164 8 -3.38241 -11.6364 -25.1184 -0.05 
326 18 1 2.28229 -19.0253 -25.9817 0.15 
5774 438 11 -2.0013 -10.1591 -30.0293 -0.49 
2904 153 7 0.611368 -10.2339 -26.3556 0.13 
3114 164 9 -3.97559 -10.8051 -25.5557 0.06 
3475 183 9 -2.4532 -15.1718 -25.437 0.06 
3460 183 2 -2.32155 -19.2566 -25.2258 -0.11 
948 50 9 6.70247 -19.3896 -25.5232 0.06 
950 50 9 5.92099 -17.9527 -26.0266 0.06 
944 50 7 10.4227 -13.95 -26.0098 0.13 
324 18 1 3.2949 -18.3772 -27.7131 0.15 
2125 112 7 6.28909 -11.8882 -25.1861 0.13 
329 18 4 3.62478 -17.5069 -28.8409 -0.17 
932 50 1 9.86756 -15.9013 -25.4373 0.15 
996 53 4 8.76718 -17.9509 -30.1068 -0.17 
6628 701 12 3.81939 -15.5919 -33.1261 0 
6631 701 12 3.81939 -12.7559 -33.1261 0 
6632 701 12 6.27539 -15.5919 -33.1261 0 
6633 701 12 5.04739 -14.8829 -33.1261 0 
6634 701 14 5.04739 -13.4649 -33.1261 0 
6635 701 12 6.27539 -12.7559 -33.1261 0 
6636 701 12 8.73139 -15.5919 -33.1261 0 
6637 701 12 7.50339 -14.8829 -33.1261 0 
6638 701 12 7.50339 -13.4649 -33.1261 0 
6639 701 12 8.73139 -12.7559 -33.1261 0 
6641 701 12 9.96039 -14.8829 -33.1261 0 
6642 701 12 9.96039 -13.4649 -33.1261 0 
6685 701 12 3.81939 -11.3379 -33.1261 0 
6689 701 12 6.27539 -11.3379 -33.1261 0 
6690 701 12 5.04739 -10.6289 -33.1261 0 
6693 701 12 8.73139 -11.3379 -33.1261 0 
6694 701 12 7.50339 -10.6289 -33.1261 0 
6698 701 12 9.96039 -10.6289 -33.1261 0 
5148 313 11 4.42539 -14.7514 -26.6929 -0.49 
5145 313 10 5.77993 -14.6994 -27.1385 0.96 
5146 313 11 6.61876 -14.1365 -26.1426 -0.49 
5149 313 11 5.79624 -13.994 -28.3664 -0.49 
5147 313 11 6.27807 -15.9414 -27.4052 -0.49 
772 41 7 7.33098 -12.4586 -28.276 0.13 
766 41 4 8.03482 -12.4927 -29.1838 -0.17 
771 41 7 8.55065 -13.4422 -29.209 0.13 
1007 53 9 8.10074 -16.8218 -28.4974 0.06 
1005 53 9 9.19651 -15.9709 -29.5292 0.06 
1002 53 8 8.31411 -16.6102 -29.5537 -0.05 
773 41 7 7.31062 -12.4475 -29.9858 0.13 
1006 53 9 7.50343 -16.2147 -30.0324 0.06 
935 50 3 9.13954 -17.9207 -25.5343 -0.13 
675 36 6 3.2422 -11.3178 -28.2698 0.21 
940 50 6 9.07182 -18.9051 -25.7934 0.21 
936 50 3 10.1517 -17.1352 -25.9618 -0.13 
1004 53 7 7.92504 -18.6452 -29.9258 0.13 
761 41 1 8.93608 -11.3699 -29.1678 0.15 
2582 136 9 9.15061 -10.5491 -25.8587 0.06 
2579 136 8 10.0785 -11.1052 -25.6631 -0.05 
2583 136 9 10.0626 -11.9659 -26.3394 0.06 
765 41 3 10.2804 -11.4389 -29.284 -0.13 
945 50 8 6.16246 -18.5689 -25.2084 -0.05 
1003 53 7 8.93074 -17.9424 -31.17 0.13 
762 41 2 8.58107 -10.0789 -29.1791 -0.11 
335 18 7 3.48205 -16.49 -28.4609 0.13 
991 53 1 10.0212 -18.5257 -29.4629 0.15 
336 18 7 4.61439 -17.2954 -29.1494 0.13 
999 53 7 13.8794 -17.5182 -28.9988 0.13 
2581 136 7 12.2478 -11.0913 -25.5363 0.13 
989 53 1 12.173 -18.7556 -29.0097 0.15 
994 53 4 13.613 -18.5759 -29.0208 -0.17 
1001 53 7 13.8907 -19.1828 -29.8178 0.13 
1000 53 7 14.0977 -19.084 -28.198 0.13 
941 50 6 11.0039 -17.3187 -26.5701 0.21 
2573 136 4 11.3947 -10.3154 -25.6487 -0.17 
4645 245 6 16.9241 -14.7381 -26.0944 0.21 
4654 245 9 17.593 -17.0515 -29.6947 0.06 
4639 245 1 17.1252 -14.1018 -28.1297 0.15 
4655 245 9 16.5836 -16.8082 -28.2243 0.06 
4650 245 8 17.1224 -16.3243 -29.0398 -0.05 
4653 245 9 16.3533 -15.8346 -29.6114 0.06 
4640 245 3 16.6102 -14.1427 -26.8701 -0.13 
4641 245 3 15.8505 -12.98 -26.8166 -0.13 
4646 245 6 15.1693 -12.5113 -26.0518 0.21 
995 53 5 11.4642 -17.073 -30.1915 0.21 
4638 245 2 16.7992 -13.0043 -28.7957 -0.11 
4643 245 5 17.1181 -12.7412 -29.853 0.21 
4637 245 1 15.9699 -12.2912 -28.0194 0.15 
5989 481 11 12.997 -13.2092 -29.8745 -0.49 
5987 481 11 13.8833 -14.9412 -28.8338 -0.49 
5988 481 11 11.8002 -14.9726 -29.4323 -0.49 
5985 481 10 12.8079 -14.1189 -28.9251 0.96 
5986 481 11 12.4124 -13.4359 -27.776 -0.49 
770 41 6 10.8021 -12.3178 -29.186 0.21 
6640 701 12 11.1884 -15.5919 -33.1261 0 
6643 701 12 11.1884 -12.7559 -33.1261 0 
6644 701 12 13.6444 -15.5919 -33.1261 0 
6645 701 12 12.4164 -14.8829 -33.1261 0 
6646 701 12 12.4164 -13.4649 -33.1261 0 
6647 701 12 13.6444 -12.7559 -33.1261 0 
6648 701 12 16.1004 -15.5919 -33.1261 0 
6649 701 12 14.8724 -14.8829 -33.1261 0 
6650 701 12 14.8724 -13.4649 -33.1261 0 
6651 701 12 16.1004 -12.7559 -33.1261 0 
6697 701 12 11.1884 -11.3379 -33.1261 0 
6701 701 12 13.6444 -11.3379 -33.1261 0 
6702 701 12 12.4164 -10.6289 -33.1261 0 
6705 701 14 16.1004 -11.3379 -33.1261 0 
6706 701 15 17.0614 -10.7829 -33.1261 0 
6707 701 12 14.8724 -10.6289 -33.1261 0 
4642 245 4 15.2629 -11.0293 -28.3797 -0.17 
4647 245 7 14.1814 -11.0784 -28.1647 0.13 
990 53 2 11.2653 -18.0836 -29.7248 -0.11 
4649 245 7 15.2802 -10.8901 -29.4283 0.13 
4648 245 7 15.8139 -10.1837 -27.9496 0.13 
764 41 3 10.6698 -10.1914 -29.2271 -0.13 
943 50 7 11.7746 -15.095 -26.0801 0.13 
937 50 4 10.8321 -14.8557 -25.5475 -0.17 
4289 226 8 -14.046 -0.79238 -26.012 -0.05 
2315 122 7 -13.1874 -9.48417 -28.4423 0.13 
2307 122 4 -12.1836 -9.49446 -28.4515 -0.17 
2314 122 7 -11.8193 -8.64695 -29.0977 0.13 
2313 122 8 -11.5751 -9.23604 -27.1676 -0.05 
5723 428 11 -15.1419 -4.41661 -26.3758 -0.49 
885 47 7 -16.3262 -8.31609 -28.1716 0.13 
659 35 7 -13.4303 -4.2981 -28.2775 0.13 
658 35 7 -13.6278 -3.99677 -30.0887 0.13 
652 35 4 -13.5166 -3.57953 -29.0219 -0.17 
880 47 4 -16.0547 -7.42899 -28.7539 -0.17 
879 47 3 -18.3352 -7.18655 -30.1368 -0.13 
875 47 1 -17.3056 -6.74372 -29.2455 0.15 
6654 701 14 -17.0566 -9.21089 -33.1261 0 
6655 701 15 -18.0176 -8.65589 -33.1261 0 
6656 701 12 -15.8286 -8.50189 -33.1261 0 
6659 701 12 -14.6006 -9.21089 -33.1261 0 
6660 701 12 -13.3726 -8.50189 -33.1261 0 
6663 701 12 -12.1446 -9.21089 -33.1261 0 
6710 701 12 -15.8286 -7.08389 -33.1261 0 
6711 701 12 -17.0566 -6.37489 -33.1261 0 
6712 701 14 -17.0566 -4.95689 -33.1261 0 
6713 701 15 -18.0176 -4.40189 -33.1261 0 
6714 701 12 -15.8286 -4.24789 -33.1261 0 
6715 701 12 -13.3726 -7.08389 -33.1261 0 
6716 701 12 -14.6006 -6.37489 -33.1261 0 
6717 701 12 -14.6006 -4.95689 -33.1261 0 
6718 701 12 -13.3726 -4.24789 -33.1261 0 
6720 701 12 -12.1446 -6.37489 -33.1261 0 
6721 701 12 -12.1446 -4.95689 -33.1261 0 
6767 701 12 -15.8286 -2.82989 -33.1261 0 
6768 701 12 -17.0566 -2.12089 -33.1261 0 
6769 701 14 -17.0566 -0.702895 -33.1261 0 
6772 701 12 -13.3726 -2.82989 -33.1261 0 
6773 701 12 -14.6006 -2.12089 -33.1261 0 
6774 701 12 -14.6006 -0.702895 -33.1261 0 
6777 701 12 -12.1446 -2.12089 -33.1261 0 
6778 701 14 -12.1446 -0.702895 -33.1261 0 
7057 701 13 -12.7436 -8.93489 -32.2071 0 
7058 701 15 -11.6336 -8.93489 -32.2071 0 
7080 701 13 -15.7766 -4.01589 -32.0901 0 
876 47 2 -17.7482 -5.63901 -28.8158 -0.11 
881 47 5 -17.2761 -5.07233 -27.9477 0.21 
887 47 7 -15.3092 -6.87593 -28.219 0.13 
886 47 7 -15.605 -7.94196 -29.6542 0.13 
657 35 7 -14.4182 -2.99804 -28.727 0.13 
647 35 1 -12.3712 -2.68584 -28.9258 0.15 
5722 428 11 -15.7075 -6.21989 -25.259 -0.49 
648 35 2 -12.1995 -1.48251 -29.5195 -0.11 
2318 122 9 -11.9671 -8.22681 -26.9045 0.06 
4292 226 9 -14.8001 -1.37 -26.5572 0.06 
5720 428 10 -15.2066 -4.97699 -25.0851 0.96 
884 47 6 -18.1659 -8.20602 -30.4945 0.21 
892 47 9 -18.4082 -3.34821 -27.155 0.06 
893 47 9 -17.9543 -2.57723 -28.6854 0.06 
653 35 5 -12.7849 -1.03895 -30.2975 0.21 
4294 226 9 -13.6387 -1.49821 -25.2923 0.06 
2018 107 3 -4.17187 -1.65339 -27.5422 -0.13 
2017 107 1 -4.05678 -1.95677 -28.8954 0.15 
2029 107 7 -5.40654 -1.64518 -30.3106 0.13 
649 35 1 -11.0971 -0.906925 -29.1915 0.15 
2023 107 6 -5.00921 -1.85076 -27.0404 0.21 
2317 122 9 -10.4791 -9.14255 -27.3693 0.06 
2030 107 7 -4.87344 -3.2772 -30.4331 0.13 
5549 393 11 -8.272 -0.82592 -25.9825 -0.49 
656 35 6 -11.0552 -3.62332 -27.4141 0.21 
3325 175 9 -7.64196 -9.94591 -28.1862 0.06 
3320 175 8 -6.75159 -9.5027 -28.399 -0.05 
503 27 6 -9.37216 -7.55399 -25.5975 0.21 
650 35 3 -10.461 -1.68887 -28.1839 -0.13 
2022 107 4 -5.16992 -2.52978 -29.7247 -0.17 
5617 407 11 -8.91233 -5.49407 -29.6104 -0.49 
5619 407 11 -9.84183 -7.65409 -29.6583 -0.49 
5615 407 10 -9.96226 -6.28818 -29.1308 0.96 
655 35 6 -9.53554 -1.57698 -27.6794 0.21 
3323 175 9 -6.58523 -9.63303 -29.4821 0.06 
2032 107 9 -6.19836 -3.94324 -28.3198 0.06 
3322 175 7 -7.67098 -7.50797 -27.9908 0.13 
5616 407 11 -11.2086 -5.88817 -29.4434 -0.49 
651 35 3 -11.2349 -2.78377 -28.114 -0.13 
3321 175 7 -6.92313 -8.28473 -26.6754 0.13 
3314 175 4 -6.80189 -8.14672 -27.7863 -0.17 
3309 175 1 -5.57002 -7.43733 -28.1028 0.15 
6664 701 12 -10.9166 -8.50189 -33.1261 0 
6667 701 12 -9.68861 -9.21089 -33.1261 0 
6668 701 12 -8.46061 -8.50189 -33.1261 0 
6671 701 12 -7.23261 -9.21089 -33.1261 0 
6672 701 12 -6.00461 -8.50189 -33.1261 0 
6675 701 12 -4.77661 -9.21089 -33.1261 0 
6719 701 14 -10.9166 -7.08389 -33.1261 0 
6722 701 12 -10.9166 -4.24789 -33.1261 0 
6723 701 14 -8.46061 -7.08389 -33.1261 0 
6724 701 15 -9.42161 -6.52889 -33.1261 0 
6725 701 14 -9.68861 -4.95689 -33.1261 0 
6726 701 12 -8.46061 -4.24789 -33.1261 0 
6727 701 12 -6.00461 -7.08389 -33.1261 0 
6728 701 12 -7.23261 -6.37489 -33.1261 0 
6729 701 12 -7.23261 -4.95689 -33.1261 0 
6730 701 12 -6.00461 -4.24789 -33.1261 0 
6732 701 12 -4.77661 -6.37489 -33.1261 0 
6733 701 12 -4.77661 -4.95689 -33.1261 0 
6776 701 12 -10.9166 -2.82989 -33.1261 0 
6780 701 12 -8.46061 -2.82989 -33.1261 0 
6781 701 12 -9.68861 -2.12089 -33.1261 0 
6782 701 12 -9.68861 -0.702895 -33.1261 0 
6784 701 12 -6.00461 -2.82989 -33.1261 0 
6785 701 12 -7.23261 -2.12089 -33.1261 0 
6786 701 12 -7.23261 -0.702895 -33.1261 0 
6789 701 12 -4.77661 -2.12089 -33.1261 0 
6790 701 12 -4.77661 -0.702895 -33.1261 0 
7059 701 13 -5.70761 -8.97089 -32.0551 0 
7060 701 15 -4.59761 -8.97089 -32.0551 0 
5618 407 11 -9.79813 -6.38029 -27.6755 -0.49 
3315 175 6 -6.105 -7.08702 -30.1352 0.21 
3310 175 3 -5.31534 -6.96927 -29.3562 -0.13 
2028 107 8 -6.40286 -3.08318 -29.0144 -0.05 
3308 175 2 -4.41508 -7.3067 -27.3568 -0.11 
3313 175 5 -4.28296 -7.66239 -26.392 0.21 
5547 393 11 -6.60012 -2.21306 -25.2513 -0.49 
2033 107 9 -6.96459 -2.36307 -28.3697 0.06 
2031 107 9 -7.07879 -3.51017 -29.8402 0.06 
511 27 9 -10.4236 -5.35342 -25.0417 0.06 
2025 107 7 -0.416364 -0.789526 -28.9204 0.13 
2015 107 1 -2.31112 -0.951622 -28.2491 0.15 
2021 107 5 -2.55031 -1.55221 -30.3388 0.21 
2016 107 2 -2.91552 -1.45437 -29.2972 -0.11 
3311 175 3 -3.97472 -6.73476 -29.4586 -0.13 
3316 175 6 -3.39042 -6.42358 -30.3161 0.21 
3307 175 1 -3.45986 -6.9119 -28.2023 0.15 
3318 175 7 -1.60755 -8.01652 -27.7582 0.13 
6118 507 11 0.651744 -5.51647 -27.1515 -0.49 
3312 175 4 -2.06928 -6.96649 -27.766 -0.17 
3317 175 7 -1.95901 -6.54049 -26.7481 0.13 
3319 175 7 -1.38266 -6.37128 -28.4438 0.13 
6676 701 12 -3.54861 -8.50189 -33.1261 0 
6679 701 12 -2.32061 -9.21089 -33.1261 0 
6680 701 12 -1.09261 -8.50189 -33.1261 0 
6683 701 12 0.135393 -9.21089 -33.1261 0 
6684 701 12 1.36339 -8.50189 -33.1261 0 
6687 701 12 2.59139 -9.21089 -33.1261 0 
6731 701 12 -3.54861 -7.08389 -33.1261 0 
6734 701 12 -3.54861 -4.24789 -33.1261 0 
6735 701 14 -1.09261 -7.08389 -33.1261 0 
6736 701 12 -2.32061 -6.37489 -33.1261 0 
6737 701 12 -2.32061 -4.95689 -33.1261 0 
6738 701 12 -1.09261 -4.24789 -33.1261 0 
6739 701 12 1.36339 -7.08389 -33.1261 0 
6740 701 14 0.135393 -4.95689 -33.1261 0 
6741 701 12 1.36339 -4.24789 -33.1261 0 
6743 701 12 2.59139 -6.37489 -33.1261 0 
6744 701 12 2.59139 -4.95689 -33.1261 0 
6788 701 12 -3.54861 -2.82989 -33.1261 0 
6792 701 12 -1.09261 -2.82989 -33.1261 0 
6793 701 12 -2.32061 -2.12089 -33.1261 0 
6794 701 12 -2.32061 -0.702895 -33.1261 0 
6796 701 12 1.36339 -2.82989 -33.1261 0 
6797 701 12 0.135393 -2.12089 -33.1261 0 
6798 701 14 0.135393 -0.702895 -33.1261 0 
6801 701 12 2.59139 -2.12089 -33.1261 0 
6802 701 12 2.59139 -0.702895 -33.1261 0 
6116 507 11 0.431791 -3.65498 -28.5182 -0.49 
6115 507 10 0.127495 -4.17467 -27.2727 0.96 
6117 507 11 -1.27841 -4.36381 -27.2015 -0.49 
6119 507 11 0.478472 -3.31446 -26.2253 -0.49 
671 36 4 1.37493 -9.69619 -29.7231 -0.17 
676 36 7 1.70869 -9.16092 -28.8188 0.13 
677 36 7 2.1954 -9.40972 -30.5248 0.13 
678 36 7 0.449781 -9.2965 -29.9903 0.13 
2019 107 3 -3.12893 -0.991297 -27.1715 -0.13 
4825 254 9 2.89916 -4.84972 -29.5884 0.06 
4823 254 7 2.68412 -3.34601 -27.5403 0.13 
2895 153 5 0.500107 -7.7776 -25.2538 0.21 
2024 107 6 -2.91609 -0.555185 -26.1781 0.21 
5874 458 11 7.99001 -1.75994 -25.779 -0.49 
5870 458 10 8.28857 -3.09478 -25.4649 0.96 
5871 458 11 7.1935 -3.87787 -25.7672 -0.49 
6103 504 11 5.79226 -9.67128 -27.2918 -0.49 
2120 112 7 7.26031 -6.88249 -25.5428 0.13 
4824 254 9 3.49438 -5.75745 -28.1301 0.06 
4822 254 7 4.08667 -4.20154 -26.9428 0.13 
3769 199 5 10.0702 -1.11263 -27.1574 0.21 
4821 254 8 3.64444 -4.83123 -28.7132 -0.05 
4814 254 5 3.2841 -0.894238 -28.4231 0.21 
4826 254 9 4.62188 -4.9202 -29.3146 0.06 
4815 254 4 3.70241 -3.66978 -27.792 -0.17 
5873 458 11 9.37794 -3.56009 -26.155 -0.49 
767 41 5 7.65853 -9.62327 -29.3024 0.21 
6101 504 11 5.86926 -7.45654 -27.7831 -0.49 
6102 504 11 5.04804 -9.20366 -29.2196 -0.49 
6104 504 11 3.80953 -8.52544 -27.3846 -0.49 
4816 254 6 6.50653 -3.55955 -28.3353 0.21 
4812 254 3 6.29089 -1.53816 -29.1913 -0.13 
6100 504 10 5.10533 -8.67287 -27.9207 0.96 
6813 701 12 9.96039 -2.12089 -33.1261 0 
6810 701 12 7.50339 -0.702895 -33.1261 0 
6756 701 12 9.96039 -4.95689 -33.1261 0 